Siesta Version  : 4.1.5
Architecture    : unknown
Compiler version: GNU Fortran (conda-forge gcc 12.3.0-5) 12.3.0
Compiler flags  : x86_64-conda-linux-gnu-gfortran -march=nocona -mtune=haswell -ftree-vectorizee -fPIC -fstack-protector-strong -fno-plt -O2 -ffunction-sections -pipe  -fallow-argument-mismatch
PP flags        : -DFC_HAVE_ABORT -DCDF -DNCDF -DNCDF_4
Libraries       : libncdf.a libfdict.a -llapack -lblas -lnetcdff -lnetcdf -lhdf5_hl -lhdf5 -lz
SERIAL version
NetCDF support
NetCDF-4 support

* Running in serial mode
>> Start of run:  20-MAR-2024  13:35:44

                           ***********************       
                           *  WELCOME TO SIESTA  *       
                           ***********************       

reinit: Reading from xoc.fdf

reinit: -----------------------------------------------------------------------
reinit: System Name: H2 + O2 -> H2O2 reaction
reinit: -----------------------------------------------------------------------
reinit: System Label: xoc
reinit: -----------------------------------------------------------------------

initatom: Reading input for the pseudopotentials and atomic orbitals ----------
Species number:   1 Atomic number:    8 Label: O
Species number:   2 Atomic number:    1 Label: H

Ground state valence configuration:   2s02  2p04
Reading pseudopotential information in formatted form from O.psf

Pseudopotential generated from a relativistic atomic calculation

Valence configuration for pseudopotential generation:
2s( 2.00) rc: 1.14
2p( 4.00) rc: 1.14
3d( 0.00) rc: 1.14
4f( 0.00) rc: 1.14
Ground state valence configuration:   1s01
Reading pseudopotential information in unformatted form from H.vps

Valence configuration for pseudopotential generation:
1s( 1.00) rc: 1.25
2p( 0.00) rc: 1.25
3d( 0.00) rc: 1.25
4f( 0.00) rc: 1.25
For O, standard SIESTA heuristics set lmxkb to 3
 (one more than the basis l, including polarization orbitals).
Use PS.lmax or PS.KBprojectors blocks to override.
For H, standard SIESTA heuristics set lmxkb to 2
 (one more than the basis l, including polarization orbitals).
Use PS.lmax or PS.KBprojectors blocks to override.

<basis_specs>
===============================================================================
O                    Z=   8    Mass=  16.000        Charge=-0.18518    
Lmxo=2 Lmxkb= 3    BasisType=split      Semic=F
L=0  Nsemic=0  Cnfigmx=2
          i=1  nzeta=2  polorb=0  (2s)
            splnorm:   0.15000    
               vcte:    87.074    
               rinn:    4.7393    
               qcoe:    0.0000    
               qyuk:    0.0000    
               qwid:   0.10000E-01
                rcs:    7.3294      4.6037    
            lambdas:    1.0000      1.0000    
L=1  Nsemic=0  Cnfigmx=2
          i=1  nzeta=2  polorb=0  (2p)
            splnorm:   0.15000    
               vcte:    68.296    
               rinn:    4.9704    
               qcoe:    0.0000    
               qyuk:    0.0000    
               qwid:   0.10000E-01
                rcs:    6.6025      3.0467    
            lambdas:    1.0000      1.0000    
L=2  Nsemic=0  Cnfigmx=3
          i=1  nzeta=1  polorb=0  (3d)
            splnorm:   0.15000    
               vcte:    91.071    
               rinn:    3.9512    
               qcoe:    0.0000    
               qyuk:    0.0000    
               qwid:   0.10000E-01
                rcs:    6.8934    
            lambdas:    1.0000    
-------------------------------------------------------------------------------
L=0  Nkbl=1  erefs: 0.17977+309
L=1  Nkbl=1  erefs: 0.17977+309
L=2  Nkbl=1  erefs: 0.17977+309
L=3  Nkbl=1  erefs: 0.17977+309
===============================================================================
</basis_specs>

atom: Called for O                     (Z =   8)

read_vps: Pseudopotential generation method:
read_vps: ATM3      Troullier-Martins                       
Valence charge for ps generation:    6.00000

read_vps: Pseudopotential includes a core correction:
read_vps: Pseudo-core for xc-correction

xc_check: Exchange-correlation functional:
xc_check: GGA Perdew, Burke & Ernzerhof 1996
V l=0 = -2*Zval/r beyond r=  1.1278
V l=1 = -2*Zval/r beyond r=  1.1278
V l=2 = -2*Zval/r beyond r=  1.1278
V l=3 = -2*Zval/r beyond r=  1.1278
All V_l potentials equal beyond r=  1.1278
This should be close to max(r_c) in ps generation
All pots = -2*Zval/r beyond r=  1.1278

VLOCAL1: 99.0% of the norm of Vloc inside     34.126 Ry
VLOCAL1: 99.9% of the norm of Vloc inside     77.774 Ry
atom: Maximum radius for 4*pi*r*r*local-pseudopot. charge    1.37759
atom: Maximum radius for r*vlocal+2*Zval:    1.18566
GHOST: No ghost state for L =  0
GHOST: No ghost state for L =  1
GHOST: No ghost state for L =  2
GHOST: No ghost state for L =  3

KBgen: Kleinman-Bylander projectors: 
   l= 0   rc=  1.360471   el= -1.759790   Ekb=  9.210761   kbcos=  0.328866
   l= 1   rc=  1.360471   el= -0.663797   Ekb= -7.921990   kbcos= -0.392961
   l= 2   rc=  1.791199   el=  0.002031   Ekb= -1.950550   kbcos= -0.003498
   l= 3   rc=  2.107308   el=  0.003153   Ekb= -0.856060   kbcos= -0.000334

KBgen: Total number of Kleinman-Bylander projectors:   16
atom: -------------------------------------------------------------------------

atom: SANKEY-TYPE ORBITALS:
atom: Selected multiple-zeta basis: split     

atom: basis set generated (by rescaling the valence charge)
atom: for an anion of charge  -0.1852

SPLIT: Orbitals with angular momentum L= 0

SPLIT: Basis orbitals for state 2s

   izeta = 1
                 lambda =    1.000000
                     rc =    7.356000
                 energy =   -1.758588
                kinetic =    1.491851
    potential(screened) =   -3.250439
       potential(ionic) =  -11.062471

   izeta = 2
                 rmatch =    4.690281
              splitnorm =    0.003309
                 energy =   -1.757602
* WARNING: effective split_norm is quite small. Orbitals will be very similar.
                kinetic =    1.574378
    potential(screened) =   -3.331980
       potential(ionic) =  -11.238433

SPLIT: Orbitals with angular momentum L= 1

SPLIT: Basis orbitals for state 2p

   izeta = 1
                 lambda =    1.000000
                     rc =    6.655955
                 energy =   -0.659921
                kinetic =    4.410674
    potential(screened) =   -5.070596
       potential(ionic) =  -12.498772

   izeta = 2
                 rmatch =    3.066256
              splitnorm =    0.127283
                 energy =   -0.537509
                kinetic =    6.271972
    potential(screened) =   -6.809481
       potential(ionic) =  -15.130217

SPLIT: Orbitals with angular momentum L= 2

SPLIT: Basis orbitals for state 3d

   izeta = 1
                 lambda =    1.000000
                     rc =    6.997229
                 energy =    0.764795
                kinetic =    1.136799
    potential(screened) =   -0.372004
       potential(ionic) =   -3.984199
atom: Total number of Sankey-type orbitals: 13

atm_pop: Valence configuration (for local Pseudopot. screening):
 2s( 2.00)                                                            
 2p( 4.00)                                                            
 3d( 0.00)                                                            
Vna: chval, zval:    6.00000   6.00000

Vna:  Cut-off radius for the neutral-atom potential:   7.356000
comcore: Pseudo-core radius Rcore=  1.377587

atom: _________________________________________________________________________

<basis_specs>
===============================================================================
H                    Z=   1    Mass=  1.0100        Charge= 0.22000    
Lmxo=1 Lmxkb= 2    BasisType=split      Semic=F
L=0  Nsemic=0  Cnfigmx=1
          i=1  nzeta=2  polorb=0  (1s)
            splnorm:   0.15000    
               vcte:    2.0700    
               rinn:    0.0000    
               qcoe:    0.0000    
               qyuk:    0.0000    
               qwid:   0.10000E-01
                rcs:    4.9710      1.7710    
            lambdas:    1.0000      1.0000    
L=1  Nsemic=0  Cnfigmx=2
          i=1  nzeta=1  polorb=0  (2p)
            splnorm:   0.15000    
               vcte:   0.89000    
               rinn:   0.10000E-01
               qcoe:    0.0000    
               qyuk:    0.0000    
               qwid:   0.10000E-01
                rcs:    4.9880    
            lambdas:    1.0000    
-------------------------------------------------------------------------------
L=0  Nkbl=1  erefs: 0.17977+309
L=1  Nkbl=1  erefs: 0.17977+309
L=2  Nkbl=1  erefs: 0.17977+309
===============================================================================
</basis_specs>

atom: Called for H                     (Z =   1)

read_vps: Pseudopotential generation method:
read_vps: ATM3      Troullier-Martins                       
Valence charge for ps generation:    1.00000

xc_check: Exchange-correlation functional:
xc_check: GGA Perdew, Burke & Ernzerhof 1996
V l=0 = -2*Zval/r beyond r=  1.2343
V l=1 = -2*Zval/r beyond r=  1.2189
V l=2 = -2*Zval/r beyond r=  1.2189
All V_l potentials equal beyond r=  1.2343
This should be close to max(r_c) in ps generation
All pots = -2*Zval/r beyond r=  1.2343

VLOCAL1: 99.0% of the norm of Vloc inside     28.493 Ry
VLOCAL1: 99.9% of the norm of Vloc inside     64.935 Ry
atom: Maximum radius for 4*pi*r*r*local-pseudopot. charge    1.45251
atom: Maximum radius for r*vlocal+2*Zval:    1.21892
GHOST: No ghost state for L =  0
GHOST: No ghost state for L =  1
GHOST: No ghost state for L =  2

KBgen: Kleinman-Bylander projectors: 
   l= 0   rc=  1.364359   el= -0.477200   Ekb= -2.021939   kbcos= -0.344793
   l= 1   rc=  1.434438   el=  0.001076   Ekb= -0.443447   kbcos= -0.022843
   l= 2   rc=  1.470814   el=  0.002010   Ekb= -0.140543   kbcos= -0.002863

KBgen: Total number of Kleinman-Bylander projectors:    9
atom: -------------------------------------------------------------------------

atom: SANKEY-TYPE ORBITALS:
atom: Selected multiple-zeta basis: split     

atom: basis set generated (by rescaling the valence charge)
atom: for a cation of charge   0.2200

SPLIT: Orbitals with angular momentum L= 0

SPLIT: Basis orbitals for state 1s

   izeta = 1
                 lambda =    1.000000
                     rc =    4.950554
                 energy =   -0.678603
                kinetic =    1.118239
    potential(screened) =   -1.796842
       potential(ionic) =   -2.106311

   izeta = 2
                 rmatch =    1.774652
              splitnorm =    0.672347
                 energy =    1.027037
                kinetic =    4.730146
    potential(screened) =   -3.703109
       potential(ionic) =   -3.968059

SPLIT: Orbitals with angular momentum L= 1

SPLIT: Basis orbitals for state 2p

   izeta = 1
                 lambda =    1.000000
                     rc =    5.075940
                 energy =    0.310352
                kinetic =    0.887169
    potential(screened) =   -0.576817
       potential(ionic) =   -0.872649
atom: Total number of Sankey-type orbitals:  5

atm_pop: Valence configuration (for local Pseudopot. screening):
 1s( 1.00)                                                            
 2p( 0.00)                                                            
Vna: chval, zval:    1.00000   1.00000

Vna:  Cut-off radius for the neutral-atom potential:   4.950554

atom: _________________________________________________________________________

prinput: Basis input ----------------------------------------------------------

PAO.BasisType split     

%block ChemicalSpeciesLabel
    1    8 O                       # Species index, atomic number, species label
    2    1 H                       # Species index, atomic number, species label
%endblock ChemicalSpeciesLabel

%block PAO.Basis                 # Define Basis set
O                     3  -0.185            # Label, l-shells, ionic net charge
 n=2   0   2                         # n, l, Nzeta 
   7.356      4.690   
   1.000      1.000   
 n=2   1   2                         # n, l, Nzeta 
   6.656      3.066   
   1.000      1.000   
 n=3   2   1                         # n, l, Nzeta 
   6.997   
   1.000   
H                     2   0.220            # Label, l-shells, ionic net charge
 n=1   0   2                         # n, l, Nzeta 
   4.951      1.775   
   1.000      1.000   
 n=2   1   1                         # n, l, Nzeta 
   5.076   
   1.000   
%endblock PAO.Basis

prinput: ----------------------------------------------------------------------

Dumping basis to NetCDF file O.ion.nc
Dumping basis to NetCDF file H.ion.nc
coor:   Atomic-coordinates input format  =     Cartesian coordinates
coor:                                          (in Angstroms)

ioxv: Reading coordinates and velocities from file
! Info in XV file prevails over previous structure input
WARNING: xoc.VERLET_RESTART not found--reading only XV file and moving back 1 time step using Euler

siesta: Atomic coordinates (Bohr) and species
siesta:      2.54735  -0.00100  -0.00070  1        1
siesta:      5.01155  -0.00100  -0.00070  1        2
siesta:     12.85052   0.01600   0.01130  2        3
siesta:     14.30566   0.01600   0.01130  2        4

siesta: System type = chain     

initatomlists: Number of atoms, orbitals, and projectors:      4    36    50

coxmol: Writing XMOL coordinates into file xoc.xyz                                                             

siesta: ******************** Simulation parameters ****************************
siesta:
siesta: The following are some of the parameters of the simulation.
siesta: A complete list of the parameters used, including default values,
siesta: can be found in file out.fdf
siesta:
redata: Spin configuration                          = none
redata: Number of spin components                   = 1
redata: Time-Reversal Symmetry                      = T
redata: Spin spiral                                 = F
redata: Long output                                 =   F
redata: Number of Atomic Species                    =        2
redata: Charge density info will appear in .RHO file
redata: Write Mulliken Pop.                         = NO
redata: Matel table size (NRTAB)                    =     1024
redata: Mesh Cutoff                                 =   200.0000 Ry
redata: Net charge of the system                    =     0.0000 |e|
redata: Min. number of SCF Iter                     =        0
redata: Max. number of SCF Iter                     =      150
redata: SCF convergence failure will abort job
redata: SCF mix quantity                            = Hamiltonian
redata: Mix DM or H after convergence               =   F
redata: Recompute H after scf cycle                 =   F
redata: Mix DM in first SCF step                    =   T
redata: Write Pulay info on disk                    =   F
redata: New DM Occupancy tolerance                  = 0.000000000001
redata: No kicks to SCF
redata: DM Mixing Weight for Kicks                  =     0.5000
redata: Require Harris convergence for SCF          =   F
redata: Harris energy tolerance for SCF             =     0.000100 eV
redata: Require DM convergence for SCF              =   T
redata: DM tolerance for SCF                        =     0.000300
redata: Require EDM convergence for SCF             =   F
redata: EDM tolerance for SCF                       =     0.001000 eV
redata: Require H convergence for SCF               =   T
redata: Hamiltonian tolerance for SCF               =     0.001000 eV
redata: Require (free) Energy convergence for SCF   =   F
redata: (free) Energy tolerance for SCF             =     0.000100 eV
redata: Using Saved Data (generic)                  =   T
redata: Use continuation files for DM               =   T
redata: Neglect nonoverlap interactions             =   F
redata: Method of Calculation                       = Diagonalization
redata: Electronic Temperature                      =   290.1109 K
redata: Fix the spin of the system                  =   F
redata: Dynamics option                             = Verlet MD run
redata: Initial MD time step                        =        1
redata:   Final MD time step                        =      200
redata: Length of MD time step                      =     1.0000 fs
redata: Initial Temperature of MD run               =     0.0000 K
redata: Perform a MD quench                         =   F
mix.SCF: Pulay mixing                            = Pulay
mix.SCF:    Variant                              = stable
mix.SCF:    History steps                        = 6
mix.SCF:    Linear mixing weight                 =     0.020000
mix.SCF:    Mixing weight                        =     0.020000
mix.SCF:    SVD condition                        = 0.1000E-07
redata: Save all siesta data in one NC              =   F
redata: ***********************************************************************

%block SCF.Mixers
  Pulay
%endblock SCF.Mixers

%block SCF.Mixer.Pulay
  # Mixing method
  method pulay
  variant stable

  # Mixing options
  weight 0.0200
  weight.linear 0.0200
  history 6
%endblock SCF.Mixer.Pulay

Size of DM history Fstack: 1
Total number of electrons:    14.000000
Total ionic charge:    14.000000
 Kpoints in:            1 . Kpoints trimmed:            1

siesta: k-grid: Number of k-points =     1
siesta: k-grid: Cutoff (effective) =     5.000 Ang
siesta: k-grid: Supercell and displacements
siesta: k-grid:    1   0   0      0.000
siesta: k-grid:    0   1   0      0.000
siesta: k-grid:    0   0   1      0.000

diag: Algorithm                                     = D&C
diag: Used triangular part                          = Lower
diag: Absolute tolerance                            =  0.100E-15
diag: Orthogonalization factor                      =  0.100E-05
diag: Memory factor                                 =  1.0000


ts: **************************************************************
ts: Save H and S matrices                           =    F
ts: Save DM and EDM matrices                        =    F
ts: Only save the overlap matrix S                  =    F
ts: **************************************************************

************************ Begin: TS CHECKS AND WARNINGS ************************
************************ End: TS CHECKS AND WARNINGS **************************


                     ====================================
                        Begin MD step =      1
                     ====================================

outcell: Unit cell vectors (Ang):
       10.000000    0.000000    0.000000
        0.000000   10.000000    0.000000
        0.000000    0.000000   10.000000

outcell: Cell vector modules (Ang)   :   10.000000   10.000000   10.000000
outcell: Cell angles (23,13,12) (deg):     90.0000     90.0000     90.0000
outcell: Cell volume (Ang**3)        :   1000.0000
Gamma-point calculation with multiply-connected orbital pairs
Gamma-point calculation with multiply-connected orbital pairs
Folding of H and S implicitly performed
Folding of H and S implicitly performed
<dSpData1D:S at geom step 1
  <sparsity:sparsity for geom step 1
    nrows_g=36 nrows=36 sparsity=.9522 nnzs=1234, refcount: 7>
  <dData1D:(new from dSpData1D) n=1234, refcount: 1>
refcount: 1>
new_DM -- step:     1
Initializing Density Matrix...

Attempting to read DM from file... Failed...
DM filled with atomic data:
<dSpData2D:DM initialized from atoms
  <sparsity:sparsity for geom step 1
    nrows_g=36 nrows=36 sparsity=.9522 nnzs=1234, refcount: 8>
  <dData2D:DM n=1234 m=1, refcount: 1>
refcount: 1>
No. of atoms with KB's overlaping orbs in proc 0. Max # of overlaps:       4      29
New grid distribution:   1
           1       1:   45    1:   45    1:   45

InitMesh: MESH =    90 x    90 x    90 =      729000
InitMesh: (bp) =    45 x    45 x    45 =       91125
InitMesh: Mesh cutoff (required, used) =   200.000   223.865 Ry
ExtMesh (bp) on 0 =   117 x   117 x   117 =     1601613
PhiOnMesh: Number of (b)points on node 0 =                91125
PhiOnMesh: nlist on node 0 =               451171

stepf: Fermi-Dirac step function

siesta: Program's energy decomposition (eV):
siesta: Ebs     =      -190.713199
siesta: Eions   =      1592.294315
siesta: Ena     =       380.022200
siesta: Ekin    =       662.723925
siesta: Enl     =       -99.910365
siesta: Eso     =         0.000000
siesta: Edftu   =         0.000000
siesta: DEna    =       -42.752508
siesta: DUscf   =         2.971313
siesta: DUext   =         0.000000
siesta: Exc     =      -210.666151
siesta: eta*DQ  =         0.000000
siesta: Emadel  =         0.000000
siesta: Emeta   =         0.000000
siesta: Emolmec =         0.000000
siesta: Ekinion =         0.000000
siesta: Eharris =      -900.672756
siesta: Etot    =      -899.905901
siesta: FreeEng =      -899.975215

        iscf     Eharris(eV)        E_KS(eV)     FreeEng(eV)     dDmax    Ef(eV) dHmax(eV)
   scf:    1     -900.672756     -899.905901     -899.975215  3.386300 -9.442728  4.723874
timer: Routine,Calls,Time,% = IterSCF        1       1.333  36.82
   scf:    2     -899.987716     -899.946934     -900.016249  0.062517 -9.352705  4.565412
   scf:    3     -900.955244     -900.578428     -900.647743  2.448595 -6.791505  0.532629
   scf:    4     -900.016752     -900.347707     -900.417021  1.911440 -5.437324  3.265983
   scf:    5     -900.705678     -900.589257     -900.658571  1.762284 -6.923755  0.179097
   scf:    6     -900.589862     -900.589573     -900.658888  0.026004 -6.899768  0.127856
   scf:    7     -900.576397     -900.583840     -900.653155  0.202789 -7.084023  0.516964
   scf:    8     -900.593766     -900.589798     -900.659113  0.201923 -6.878880  0.081791
   scf:    9     -900.590012     -900.589914     -900.659228  0.009742 -6.861869  0.044457
   scf:   10     -900.589977     -900.589958     -900.659273  0.022021 -6.839023  0.008497
   scf:   11     -900.589954     -900.589958     -900.659272  0.003589 -6.841556  0.003567
   scf:   12     -900.589958     -900.589958     -900.659272  0.000657 -6.840570  0.001691
   scf:   13     -900.589959     -900.589959     -900.659274  0.001053 -6.840046  0.000118
   scf:   14     -900.589959     -900.589959     -900.659274  0.000007 -6.840038  0.000118

SCF Convergence by DM+H criterion
max |DM_out - DM_in|         :     0.0000072340
max |H_out - H_in|      (eV) :     0.0001184461
SCF cycle converged after 14 iterations

Using DM_out to compute the final energy and forces
No. of atoms with KB's overlaping orbs in proc 0. Max # of overlaps:       4      29

siesta: E_KS(eV) =             -900.5900

siesta: E_KS - E_eggbox =      -900.5900

siesta: Atomic forces (eV/Ang):
----------------------------------------
   Tot    0.004032    0.000339    0.000224
----------------------------------------
   Max    0.872835
   Res    0.355639    sqrt( Sum f_i^2 / 3N )
----------------------------------------
   Max    0.872835    constrained

Stress tensor Voigt[x,y,z,yz,xz,xy] (kbar):      -10.75       -0.42       -0.25       -0.10        0.17        0.34
(Free)E + p*V (eV/cell)     -898.2855
Target enthalpy (eV/cell)     -900.6593

siesta: Stress tensor (static) (eV/Ang**3):
         0.000661   -0.000000   -0.000000
        -0.000000    0.000006   -0.000000
        -0.000000   -0.000000    0.000006

siesta: Pressure (static):         -0.35950849  kBar

siesta: Stress tensor (total) (eV/Ang**3):
        -0.006708    0.000210    0.000103
         0.000210   -0.000259   -0.000060
         0.000103   -0.000060   -0.000154

siesta: Pressure (total):          3.80321919  kBar

siesta: Temp_ion =   10123.457 K

                     ====================================
                        Begin MD step =      2
                     ====================================

outcell: Unit cell vectors (Ang):
       10.000000    0.000000    0.000000
        0.000000   10.000000    0.000000
        0.000000    0.000000   10.000000

outcell: Cell vector modules (Ang)   :   10.000000   10.000000   10.000000
outcell: Cell angles (23,13,12) (deg):     90.0000     90.0000     90.0000
outcell: Cell volume (Ang**3)        :   1000.0000
Gamma-point calculation with multiply-connected orbital pairs
Gamma-point calculation with multiply-connected orbital pairs
Folding of H and S implicitly performed
Folding of H and S implicitly performed
<dSpData1D:S at geom step 2
  <sparsity:sparsity for geom step 2
    nrows_g=36 nrows=36 sparsity=.9383 nnzs=1216, refcount: 7>
  <dData1D:(new from dSpData1D) n=1216, refcount: 1>
refcount: 1>
new_DM -- step:     2
Re-using DM from previous geometries...
Number of DMs in history: 1
 DM extrapolation coefficients: 
1   1.00000
New DM after history re-use:
<dSpData2D:SpM extrapolated using coords
  <sparsity:sparsity for geom step 2
    nrows_g=36 nrows=36 sparsity=.9383 nnzs=1216, refcount: 9>
  <dData2D:(temp array for extrapolation) n=1216 m=1, refcount: 1>
refcount: 1>
Note: For starting DM, Qtot, Tr[D*S] =         14.00000000         14.04127169
No. of atoms with KB's overlaping orbs in proc 0. Max # of overlaps:       4      26
New grid distribution:   1
           1       1:   45    1:   45    1:   45

InitMesh: MESH =    90 x    90 x    90 =      729000
InitMesh: (bp) =    45 x    45 x    45 =       91125
InitMesh: Mesh cutoff (required, used) =   200.000   223.865 Ry
ExtMesh (bp) on 0 =   117 x   117 x   117 =     1601613
PhiOnMesh: Number of (b)points on node 0 =                91125
PhiOnMesh: nlist on node 0 =               451314

        iscf     Eharris(eV)        E_KS(eV)     FreeEng(eV)     dDmax    Ef(eV) dHmax(eV)
   scf:    1     -900.573258     -900.582590     -900.651905  0.206571 -7.121589  0.608567
   scf:    2     -900.576736     -900.584329     -900.653637  0.472640 -6.582895  0.466897
   scf:    3     -900.591252     -900.588576     -900.657890  0.195312 -6.799179  0.093079
   scf:    4     -900.587998     -900.588446     -900.657748  0.025514 -6.773755  0.069190
   scf:    5     -900.584900     -900.586892     -900.656166  0.086181 -6.682164  0.249695
   scf:    6     -900.589048     -900.588259     -900.657574  0.043361 -6.722967  0.140781
   scf:    7     -900.588797     -900.588683     -900.657998  0.076542 -6.799289  0.034621
   scf:    8     -900.588579     -900.588644     -900.657957  0.005585 -6.802871  0.052723
   scf:    9     -900.588726     -900.588706     -900.658020  0.017103 -6.782695  0.000319
   scf:   10     -900.588706     -900.588706     -900.658020  0.000023 -6.782657  0.000315

SCF Convergence by DM+H criterion
max |DM_out - DM_in|         :     0.0000228115
max |H_out - H_in|      (eV) :     0.0003151319
SCF cycle converged after 10 iterations

Using DM_out to compute the final energy and forces
No. of atoms with KB's overlaping orbs in proc 0. Max # of overlaps:       4      26

siesta: E_KS(eV) =             -900.5887

siesta: Atomic forces (eV/Ang):
----------------------------------------
   Tot    0.000411    0.000489    0.000360
----------------------------------------
   Max    0.839469
   Res    0.428912    sqrt( Sum f_i^2 / 3N )
----------------------------------------
   Max    0.839469    constrained

Stress tensor Voigt[x,y,z,yz,xz,xy] (kbar):      -13.87       -0.42       -0.25       -0.10        0.10        0.27
(Free)E + p*V (eV/cell)     -897.6319
Target enthalpy (eV/cell)     -900.6580

siesta: Stress tensor (static) (eV/Ang**3):
        -0.001291   -0.000039   -0.000043
        -0.000039    0.000004   -0.000002
        -0.000043   -0.000002    0.000003

siesta: Pressure (static):          0.68572109  kBar

siesta: Stress tensor (total) (eV/Ang**3):
        -0.008660    0.000171    0.000060
         0.000171   -0.000261   -0.000062
         0.000060   -0.000062   -0.000158

siesta: Pressure (total):          4.84844878  kBar

siesta: Temp_ion =   10119.350 K

                     ====================================
                        Begin MD step =      3
                     ====================================

outcell: Unit cell vectors (Ang):
       10.000000    0.000000    0.000000
        0.000000   10.000000    0.000000
        0.000000    0.000000   10.000000

outcell: Cell vector modules (Ang)   :   10.000000   10.000000   10.000000
outcell: Cell angles (23,13,12) (deg):     90.0000     90.0000     90.0000
outcell: Cell volume (Ang**3)        :   1000.0000
Gamma-point calculation with multiply-connected orbital pairs
Gamma-point calculation with multiply-connected orbital pairs
Folding of H and S implicitly performed
Folding of H and S implicitly performed
<dSpData1D:S at geom step 3
  <sparsity:sparsity for geom step 3
    nrows_g=36 nrows=36 sparsity=.9383 nnzs=1216, refcount: 7>
  <dData1D:(new from dSpData1D) n=1216, refcount: 1>
refcount: 1>
new_DM -- step:     3
Re-using DM from previous geometries...
Number of DMs in history: 1
 DM extrapolation coefficients: 
1   1.00000
New DM after history re-use:
<dSpData2D:SpM extrapolated using coords
  <sparsity:sparsity for geom step 3
    nrows_g=36 nrows=36 sparsity=.9383 nnzs=1216, refcount: 9>
  <dData2D:(temp array for extrapolation) n=1216 m=1, refcount: 1>
refcount: 1>
Note: For starting DM, Qtot, Tr[D*S] =         14.00000000         14.02453330
No. of atoms with KB's overlaping orbs in proc 0. Max # of overlaps:       4      26
New grid distribution:   1
           1       1:   45    1:   45    1:   45

InitMesh: MESH =    90 x    90 x    90 =      729000
InitMesh: (bp) =    45 x    45 x    45 =       91125
InitMesh: Mesh cutoff (required, used) =   200.000   223.865 Ry
ExtMesh (bp) on 0 =   117 x   117 x   117 =     1601613
PhiOnMesh: Number of (b)points on node 0 =                91125
PhiOnMesh: nlist on node 0 =               451316

        iscf     Eharris(eV)        E_KS(eV)     FreeEng(eV)     dDmax    Ef(eV) dHmax(eV)
   scf:    1     -900.466254     -900.540639     -900.609954  0.162227 -6.916807  0.329206
   scf:    2     -900.538769     -900.541204     -900.610505  0.294290 -6.619578  0.240280
   scf:    3     -900.543431     -900.542577     -900.611889  0.120494 -6.739223  0.048058
   scf:    4     -900.541739     -900.542379     -900.611672  0.014903 -6.730565  0.026056
   scf:    5     -900.541272     -900.542145     -900.611459  0.073978 -6.800034  0.154560
   scf:    6     -900.542834     -900.542634     -900.611949  0.077950 -6.724478  0.016299
   scf:    7     -900.542517     -900.542596     -900.611911  0.029644 -6.751353  0.045917
   scf:    8     -900.542651     -900.542625     -900.611940  0.007424 -6.742587  0.027660
   scf:    9     -900.542650     -900.542642     -900.611956  0.011840 -6.729984  0.000182
   scf:   10     -900.542642     -900.542642     -900.611956  0.000085 -6.729968  0.000226

SCF Convergence by DM+H criterion
max |DM_out - DM_in|         :     0.0000851907
max |H_out - H_in|      (eV) :     0.0002255757
SCF cycle converged after 10 iterations

Using DM_out to compute the final energy and forces
No. of atoms with KB's overlaping orbs in proc 0. Max # of overlaps:       4      26

siesta: E_KS(eV) =             -900.5426

siesta: Atomic forces (eV/Ang):
----------------------------------------
   Tot    0.003866   -0.000068   -0.000115
----------------------------------------
   Max    2.020593
   Res    0.956228    sqrt( Sum f_i^2 / 3N )
----------------------------------------
   Max    2.020593    constrained

Stress tensor Voigt[x,y,z,yz,xz,xy] (kbar):      -16.11       -0.44       -0.31       -0.14       -0.17        0.04
(Free)E + p*V (eV/cell)     -897.1027
Target enthalpy (eV/cell)     -900.6120

siesta: Stress tensor (static) (eV/Ang**3):
        -0.002697   -0.000180   -0.000213
        -0.000180   -0.000011   -0.000023
        -0.000213   -0.000023   -0.000029

siesta: Pressure (static):          1.46142526  kBar

siesta: Stress tensor (total) (eV/Ang**3):
        -0.010058    0.000027   -0.000106
         0.000027   -0.000278   -0.000085
        -0.000106   -0.000085   -0.000192

siesta: Pressure (total):          5.62246405  kBar

siesta: Temp_ion =   10025.497 K

                     ====================================
                        Begin MD step =      4
                     ====================================

outcell: Unit cell vectors (Ang):
       10.000000    0.000000    0.000000
        0.000000   10.000000    0.000000
        0.000000    0.000000   10.000000

outcell: Cell vector modules (Ang)   :   10.000000   10.000000   10.000000
outcell: Cell angles (23,13,12) (deg):     90.0000     90.0000     90.0000
outcell: Cell volume (Ang**3)        :   1000.0000
Gamma-point calculation with multiply-connected orbital pairs
Gamma-point calculation with multiply-connected orbital pairs
Folding of H and S implicitly performed
Folding of H and S implicitly performed
<dSpData1D:S at geom step 4
  <sparsity:sparsity for geom step 4
    nrows_g=36 nrows=36 sparsity=.9336 nnzs=1210, refcount: 7>
  <dData1D:(new from dSpData1D) n=1210, refcount: 1>
refcount: 1>
new_DM -- step:     4
Re-using DM from previous geometries...
Number of DMs in history: 1
 DM extrapolation coefficients: 
1   1.00000
New DM after history re-use:
<dSpData2D:SpM extrapolated using coords
  <sparsity:sparsity for geom step 4
    nrows_g=36 nrows=36 sparsity=.9336 nnzs=1210, refcount: 9>
  <dData2D:(temp array for extrapolation) n=1210 m=1, refcount: 1>
refcount: 1>
No. of atoms with KB's overlaping orbs in proc 0. Max # of overlaps:       4      30
New grid distribution:   1
           1       1:   45    1:   45    1:   45

InitMesh: MESH =    90 x    90 x    90 =      729000
InitMesh: (bp) =    45 x    45 x    45 =       91125
InitMesh: Mesh cutoff (required, used) =   200.000   223.865 Ry
ExtMesh (bp) on 0 =   117 x   117 x   117 =     1601613
PhiOnMesh: Number of (b)points on node 0 =                91125
PhiOnMesh: nlist on node 0 =               451252

        iscf     Eharris(eV)        E_KS(eV)     FreeEng(eV)     dDmax    Ef(eV) dHmax(eV)
   scf:    1     -900.356837     -900.565041     -900.634355  0.306047 -6.558468  0.258000
   scf:    2     -900.560841     -900.564396     -900.633644  0.098282 -6.766434  0.258527
   scf:    3     -900.566985     -900.565999     -900.635302  0.040629 -6.681102  0.043001
   scf:    4     -900.565713     -900.566105     -900.635411  0.014123 -6.683580  0.030100
   scf:    5     -900.566103     -900.566190     -900.635504  0.008781 -6.689515  0.021810
   scf:    6     -900.566059     -900.566148     -900.635462  0.006661 -6.701805  0.049937
   scf:    7     -900.566218     -900.566213     -900.635528  0.023232 -6.681684  0.012699
   scf:    8     -900.566216     -900.566215     -900.635530  0.004074 -6.685856  0.004908
   scf:    9     -900.566217     -900.566217     -900.635532  0.001268 -6.686988  0.000344
   scf:   10     -900.566217     -900.566217     -900.635532  0.000082 -6.687015  0.000282

SCF Convergence by DM+H criterion
max |DM_out - DM_in|         :     0.0000816277
max |H_out - H_in|      (eV) :     0.0002823133
SCF cycle converged after 10 iterations

Using DM_out to compute the final energy and forces
No. of atoms with KB's overlaping orbs in proc 0. Max # of overlaps:       4      30

siesta: E_KS(eV) =             -900.5662

siesta: Atomic forces (eV/Ang):
----------------------------------------
   Tot   -0.002841   -0.000564    0.000360
----------------------------------------
   Max    1.553057
   Res    0.807803    sqrt( Sum f_i^2 / 3N )
----------------------------------------
   Max    1.553057    constrained

Stress tensor Voigt[x,y,z,yz,xz,xy] (kbar):      -15.90       -0.48       -0.37       -0.17       -0.24       -0.10
(Free)E + p*V (eV/cell)     -897.1517
Target enthalpy (eV/cell)     -900.6355

siesta: Stress tensor (static) (eV/Ang**3):
        -0.002669   -0.000205   -0.000187
        -0.000205   -0.000020   -0.000032
        -0.000187   -0.000032   -0.000044

siesta: Pressure (static):          1.45928634  kBar

siesta: Stress tensor (total) (eV/Ang**3):
        -0.009926   -0.000060   -0.000151
        -0.000060   -0.000297   -0.000109
        -0.000151   -0.000109   -0.000229

siesta: Pressure (total):          5.58173317  kBar

siesta: Temp_ion =   10066.429 K

                     ====================================
                        Begin MD step =      5
                     ====================================

outcell: Unit cell vectors (Ang):
       10.000000    0.000000    0.000000
        0.000000   10.000000    0.000000
        0.000000    0.000000   10.000000

outcell: Cell vector modules (Ang)   :   10.000000   10.000000   10.000000
outcell: Cell angles (23,13,12) (deg):     90.0000     90.0000     90.0000
outcell: Cell volume (Ang**3)        :   1000.0000
Gamma-point calculation with multiply-connected orbital pairs
Gamma-point calculation with multiply-connected orbital pairs
Folding of H and S implicitly performed
Folding of H and S implicitly performed
<dSpData1D:S at geom step 5
  <sparsity:sparsity for geom step 5
    nrows_g=36 nrows=36 sparsity=.9398 nnzs=1218, refcount: 7>
  <dData1D:(new from dSpData1D) n=1218, refcount: 1>
refcount: 1>
new_DM -- step:     5
Re-using DM from previous geometries...
Number of DMs in history: 1
 DM extrapolation coefficients: 
1   1.00000
New DM after history re-use:
<dSpData2D:SpM extrapolated using coords
  <sparsity:sparsity for geom step 5
    nrows_g=36 nrows=36 sparsity=.9398 nnzs=1218, refcount: 9>
  <dData2D:(temp array for extrapolation) n=1218 m=1, refcount: 1>
refcount: 1>
Note: For starting DM, Qtot, Tr[D*S] =         14.00000000         13.96760404
No. of atoms with KB's overlaping orbs in proc 0. Max # of overlaps:       4      30
New grid distribution:   1
           1       1:   45    1:   45    1:   45

InitMesh: MESH =    90 x    90 x    90 =      729000
InitMesh: (bp) =    45 x    45 x    45 =       91125
InitMesh: Mesh cutoff (required, used) =   200.000   223.865 Ry
ExtMesh (bp) on 0 =   117 x   117 x   117 =     1601613
PhiOnMesh: Number of (b)points on node 0 =                91125
PhiOnMesh: nlist on node 0 =               451227

        iscf     Eharris(eV)        E_KS(eV)     FreeEng(eV)     dDmax    Ef(eV) dHmax(eV)
   scf:    1     -900.283531     -900.571121     -900.640433  0.445974 -6.326585  0.652414
   scf:    2     -900.544733     -900.566616     -900.635582  0.376943 -6.862252  0.667211
   scf:    3     -900.582293     -900.576331     -900.645589  0.156189 -6.637206  0.103362
   scf:    4     -900.575047     -900.576988     -900.646260  0.034471 -6.641476  0.081824
   scf:    5     -900.576461     -900.577184     -900.646496  0.027165 -6.694236  0.120998
   scf:    6     -900.576350     -900.576867     -900.646177  0.018142 -6.720521  0.178352
   scf:    7     -900.577774     -900.577532     -900.646846  0.069171 -6.647721  0.020001
   scf:    8     -900.577535     -900.577535     -900.646850  0.006744 -6.655134  0.005073
   scf:    9     -900.577535     -900.577537     -900.646851  0.002211 -6.656832  0.000802
   scf:   10     -900.577537     -900.577537     -900.646851  0.000263 -6.657087  0.000517

SCF Convergence by DM+H criterion
max |DM_out - DM_in|         :     0.0002630107
max |H_out - H_in|      (eV) :     0.0005171534
SCF cycle converged after 10 iterations

Using DM_out to compute the final energy and forces
No. of atoms with KB's overlaping orbs in proc 0. Max # of overlaps:       4      30

siesta: E_KS(eV) =             -900.5775

siesta: Atomic forces (eV/Ang):
----------------------------------------
   Tot    0.000403    0.000081    0.000360
----------------------------------------
   Max    1.852579
   Res    0.780756    sqrt( Sum f_i^2 / 3N )
----------------------------------------
   Max    1.852579    constrained

Stress tensor Voigt[x,y,z,yz,xz,xy] (kbar):      -14.64       -0.45       -0.28       -0.12        0.13        0.03
(Free)E + p*V (eV/cell)     -897.4486
Target enthalpy (eV/cell)     -900.6469

siesta: Stress tensor (static) (eV/Ang**3):
        -0.001903   -0.000041    0.000136
        -0.000041    0.000014    0.000027
         0.000136    0.000027    0.000045

siesta: Pressure (static):          0.98491723  kBar

siesta: Stress tensor (total) (eV/Ang**3):
        -0.009138    0.000020    0.000080
         0.000020   -0.000280   -0.000074
         0.000080   -0.000074   -0.000177

siesta: Pressure (total):          5.12419490  kBar

siesta: Temp_ion =   10087.509 K

                     ====================================
                        Begin MD step =      6
                     ====================================

outcell: Unit cell vectors (Ang):
       10.000000    0.000000    0.000000
        0.000000   10.000000    0.000000
        0.000000    0.000000   10.000000

outcell: Cell vector modules (Ang)   :   10.000000   10.000000   10.000000
outcell: Cell angles (23,13,12) (deg):     90.0000     90.0000     90.0000
outcell: Cell volume (Ang**3)        :   1000.0000
Gamma-point calculation with multiply-connected orbital pairs
Gamma-point calculation with multiply-connected orbital pairs
Folding of H and S implicitly performed
Folding of H and S implicitly performed
<dSpData1D:S at geom step 6
  <sparsity:sparsity for geom step 6
    nrows_g=36 nrows=36 sparsity=.9414 nnzs=1220, refcount: 7>
  <dData1D:(new from dSpData1D) n=1220, refcount: 1>
refcount: 1>
new_DM -- step:     6
Re-using DM from previous geometries...
Number of DMs in history: 1
 DM extrapolation coefficients: 
1   1.00000
New DM after history re-use:
<dSpData2D:SpM extrapolated using coords
  <sparsity:sparsity for geom step 6
    nrows_g=36 nrows=36 sparsity=.9414 nnzs=1220, refcount: 9>
  <dData2D:(temp array for extrapolation) n=1220 m=1, refcount: 1>
refcount: 1>
Note: For starting DM, Qtot, Tr[D*S] =         14.00000000         13.96985198
No. of atoms with KB's overlaping orbs in proc 0. Max # of overlaps:       4      30
New grid distribution:   1
           1       1:   45    1:   45    1:   45

InitMesh: MESH =    90 x    90 x    90 =      729000
InitMesh: (bp) =    45 x    45 x    45 =       91125
InitMesh: Mesh cutoff (required, used) =   200.000   223.865 Ry
ExtMesh (bp) on 0 =   117 x   117 x   117 =     1601613
PhiOnMesh: Number of (b)points on node 0 =                91125
PhiOnMesh: nlist on node 0 =               451236

        iscf     Eharris(eV)        E_KS(eV)     FreeEng(eV)     dDmax    Ef(eV) dHmax(eV)
   scf:    1     -900.298104     -900.522401     -900.591709  0.469228 -6.347598  0.589608
   scf:    2     -900.472477     -900.509782     -900.578122  0.363972 -6.826308  0.675686
   scf:    3     -900.534356     -900.525250     -900.594410  0.155796 -6.618805  0.132585
   scf:    4     -900.522724     -900.526677     -900.595917  0.049827 -6.628887  0.075698
   scf:    5     -900.526352     -900.527341     -900.596647  0.028264 -6.663190  0.089384
   scf:    6     -900.527113     -900.527240     -900.596551  0.012880 -6.681675  0.129743
   scf:    7     -900.527759     -900.527612     -900.596926  0.045581 -6.639047  0.005011
   scf:    8     -900.527611     -900.527612     -900.596926  0.002152 -6.641363  0.001791
   scf:    9     -900.527610     -900.527611     -900.596926  0.000630 -6.641775  0.000987
   scf:   10     -900.527611     -900.527611     -900.596926  0.000168 -6.641947  0.000818

SCF Convergence by DM+H criterion
max |DM_out - DM_in|         :     0.0001676411
max |H_out - H_in|      (eV) :     0.0008182787
SCF cycle converged after 10 iterations

Using DM_out to compute the final energy and forces
No. of atoms with KB's overlaping orbs in proc 0. Max # of overlaps:       4      30

siesta: E_KS(eV) =             -900.5276

siesta: Atomic forces (eV/Ang):
----------------------------------------
   Tot   -0.001530   -0.000049    0.000346
----------------------------------------
   Max    1.992876
   Res    1.067477    sqrt( Sum f_i^2 / 3N )
----------------------------------------
   Max    1.992876    constrained

Stress tensor Voigt[x,y,z,yz,xz,xy] (kbar):      -13.70       -0.36       -0.05        0.04        0.66        0.26
(Free)E + p*V (eV/cell)     -897.6611
Target enthalpy (eV/cell)     -900.5969

siesta: Stress tensor (static) (eV/Ang**3):
        -0.001316    0.000145    0.000489
         0.000145    0.000075    0.000129
         0.000489    0.000129    0.000200

siesta: Pressure (static):          0.55587734  kBar

siesta: Stress tensor (total) (eV/Ang**3):
        -0.008552    0.000165    0.000414
         0.000165   -0.000225    0.000024
         0.000414    0.000024   -0.000031

siesta: Pressure (total):          4.70382320  kBar

siesta: Temp_ion =    9974.775 K

                     ====================================
                        Begin MD step =      7
                     ====================================

outcell: Unit cell vectors (Ang):
       10.000000    0.000000    0.000000
        0.000000   10.000000    0.000000
        0.000000    0.000000   10.000000

outcell: Cell vector modules (Ang)   :   10.000000   10.000000   10.000000
outcell: Cell angles (23,13,12) (deg):     90.0000     90.0000     90.0000
outcell: Cell volume (Ang**3)        :   1000.0000
Gamma-point calculation with multiply-connected orbital pairs
Gamma-point calculation with multiply-connected orbital pairs
Folding of H and S implicitly performed
Folding of H and S implicitly performed
<dSpData1D:S at geom step 7
  <sparsity:sparsity for geom step 7
    nrows_g=36 nrows=36 sparsity=.9691 nnzs=1256, refcount: 7>
  <dData1D:(new from dSpData1D) n=1256, refcount: 1>
refcount: 1>
new_DM -- step:     7
Re-using DM from previous geometries...
Number of DMs in history: 1
 DM extrapolation coefficients: 
1   1.00000
New DM after history re-use:
<dSpData2D:SpM extrapolated using coords
  <sparsity:sparsity for geom step 7
    nrows_g=36 nrows=36 sparsity=.9691 nnzs=1256, refcount: 9>
  <dData2D:(temp array for extrapolation) n=1256 m=1, refcount: 1>
refcount: 1>
No. of atoms with KB's overlaping orbs in proc 0. Max # of overlaps:       4      33
New grid distribution:   1
           1       1:   45    1:   45    1:   45

InitMesh: MESH =    90 x    90 x    90 =      729000
InitMesh: (bp) =    45 x    45 x    45 =       91125
InitMesh: Mesh cutoff (required, used) =   200.000   223.865 Ry
ExtMesh (bp) on 0 =   117 x   117 x   117 =     1601613
PhiOnMesh: Number of (b)points on node 0 =                91125
PhiOnMesh: nlist on node 0 =               451277

        iscf     Eharris(eV)        E_KS(eV)     FreeEng(eV)     dDmax    Ef(eV) dHmax(eV)
   scf:    1     -900.446109     -900.500757     -900.570063  0.401038 -6.542242  0.204129
   scf:    2     -900.460349     -900.488466     -900.556730  0.138911 -6.706525  0.289210
   scf:    3     -900.505860     -900.499736     -900.568909  0.064737 -6.629751  0.073781
   scf:    4     -900.500285     -900.501340     -900.570644  0.034164 -6.639074  0.025572
   scf:    5     -900.501162     -900.501420     -900.570731  0.011873 -6.637319  0.022660
   scf:    6     -900.501354     -900.501453     -900.570766  0.007650 -6.642893  0.019589
   scf:    7     -900.501482     -900.501477     -900.570791  0.004350 -6.643039  0.000852
   scf:    8     -900.501477     -900.501477     -900.570791  0.000309 -6.642995  0.000788
   scf:    9     -900.501477     -900.501477     -900.570791  0.000361 -6.643105  0.000649
   scf:   10     -900.501477     -900.501477     -900.570791  0.000049 -6.643118  0.000570

SCF Convergence by DM+H criterion
max |DM_out - DM_in|         :     0.0000492035
max |H_out - H_in|      (eV) :     0.0005695049
SCF cycle converged after 10 iterations

Using DM_out to compute the final energy and forces
No. of atoms with KB's overlaping orbs in proc 0. Max # of overlaps:       4      33

siesta: E_KS(eV) =             -900.5015

siesta: Atomic forces (eV/Ang):
----------------------------------------
   Tot    0.001603    0.000346   -0.000021
----------------------------------------
   Max    1.953842
   Res    1.160413    sqrt( Sum f_i^2 / 3N )
----------------------------------------
   Max    1.953842    constrained

Stress tensor Voigt[x,y,z,yz,xz,xy] (kbar):      -13.38       -0.25        0.23        0.22        1.05        0.42
(Free)E + p*V (eV/cell)     -897.7819
Target enthalpy (eV/cell)     -900.5708

siesta: Stress tensor (static) (eV/Ang**3):
        -0.001132    0.000227    0.000661
         0.000227    0.000123    0.000210
         0.000661    0.000210    0.000322

siesta: Pressure (static):          0.36680806  kBar

siesta: Stress tensor (total) (eV/Ang**3):
        -0.008348    0.000260    0.000657
         0.000260   -0.000159    0.000138
         0.000657    0.000138    0.000141

siesta: Pressure (total):          4.46839824  kBar

siesta: Temp_ion =    9914.884 K

                     ====================================
                        Begin MD step =      8
                     ====================================

outcell: Unit cell vectors (Ang):
       10.000000    0.000000    0.000000
        0.000000   10.000000    0.000000
        0.000000    0.000000   10.000000

outcell: Cell vector modules (Ang)   :   10.000000   10.000000   10.000000
outcell: Cell angles (23,13,12) (deg):     90.0000     90.0000     90.0000
outcell: Cell volume (Ang**3)        :   1000.0000
Gamma-point calculation with multiply-connected orbital pairs
Gamma-point calculation with multiply-connected orbital pairs
Folding of H and S implicitly performed
Folding of H and S implicitly performed
<dSpData1D:S at geom step 8
  <sparsity:sparsity for geom step 8
    nrows_g=36 nrows=36 sparsity=.9784 nnzs=1268, refcount: 7>
  <dData1D:(new from dSpData1D) n=1268, refcount: 1>
refcount: 1>
new_DM -- step:     8
Re-using DM from previous geometries...
Number of DMs in history: 1
 DM extrapolation coefficients: 
1   1.00000
New DM after history re-use:
<dSpData2D:SpM extrapolated using coords
  <sparsity:sparsity for geom step 8
    nrows_g=36 nrows=36 sparsity=.9784 nnzs=1268, refcount: 9>
  <dData2D:(temp array for extrapolation) n=1268 m=1, refcount: 1>
refcount: 1>
No. of atoms with KB's overlaping orbs in proc 0. Max # of overlaps:       4      34
New grid distribution:   1
           1       1:   45    1:   45    1:   45

InitMesh: MESH =    90 x    90 x    90 =      729000
InitMesh: (bp) =    45 x    45 x    45 =       91125
InitMesh: Mesh cutoff (required, used) =   200.000   223.865 Ry
ExtMesh (bp) on 0 =   117 x   117 x   117 =     1601613
PhiOnMesh: Number of (b)points on node 0 =                91125
PhiOnMesh: nlist on node 0 =               451238

        iscf     Eharris(eV)        E_KS(eV)     FreeEng(eV)     dDmax    Ef(eV) dHmax(eV)
   scf:    1     -900.676926     -900.543584     -900.612898  0.269653 -6.796129  0.289890
   scf:    2     -900.533832     -900.541258     -900.610496  0.161749 -6.573484  0.377721
   scf:    3     -900.546285     -900.544443     -900.613747  0.076542 -6.677616  0.095251
   scf:    4     -900.544094     -900.544672     -900.613972  0.020173 -6.661863  0.032326
   scf:    5     -900.544866     -900.544849     -900.614164  0.010542 -6.665639  0.032954
   scf:    6     -900.544644     -900.544772     -900.614086  0.012478 -6.642352  0.063649
   scf:    7     -900.544882     -900.544859     -900.614173  0.019778 -6.662239  0.005515
   scf:    8     -900.544855     -900.544857     -900.614172  0.001003 -6.661183  0.005901
   scf:    9     -900.544859     -900.544859     -900.614174  0.001543 -6.659952  0.000275
   scf:   10     -900.544859     -900.544859     -900.614174  0.000060 -6.659925  0.000218

SCF Convergence by DM+H criterion
max |DM_out - DM_in|         :     0.0000597443
max |H_out - H_in|      (eV) :     0.0002183116
SCF cycle converged after 10 iterations

Using DM_out to compute the final energy and forces
No. of atoms with KB's overlaping orbs in proc 0. Max # of overlaps:       4      34

siesta: E_KS(eV) =             -900.5449

siesta: Atomic forces (eV/Ang):
----------------------------------------
   Tot   -0.003582   -0.000227   -0.000429
----------------------------------------
   Max    1.742747
   Res    0.982159    sqrt( Sum f_i^2 / 3N )
----------------------------------------
   Max    1.742747    constrained

Stress tensor Voigt[x,y,z,yz,xz,xy] (kbar):      -13.65       -0.21        0.34        0.30        1.01        0.32
(Free)E + p*V (eV/cell)     -897.8017
Target enthalpy (eV/cell)     -900.6142

siesta: Stress tensor (static) (eV/Ang**3):
        -0.001242    0.000151    0.000560
         0.000151    0.000119    0.000210
         0.000560    0.000210    0.000319

siesta: Pressure (static):          0.42917175  kBar

siesta: Stress tensor (total) (eV/Ang**3):
        -0.008518    0.000200    0.000633
         0.000200   -0.000134    0.000189
         0.000633    0.000189    0.000215

siesta: Pressure (total):          4.50613481  kBar

siesta: Temp_ion =   10018.400 K

                     ====================================
                        Begin MD step =      9
                     ====================================

outcell: Unit cell vectors (Ang):
       10.000000    0.000000    0.000000
        0.000000   10.000000    0.000000
        0.000000    0.000000   10.000000

outcell: Cell vector modules (Ang)   :   10.000000   10.000000   10.000000
outcell: Cell angles (23,13,12) (deg):     90.0000     90.0000     90.0000
outcell: Cell volume (Ang**3)        :   1000.0000
Gamma-point calculation with multiply-connected orbital pairs
Gamma-point calculation with multiply-connected orbital pairs
Folding of H and S implicitly performed
Folding of H and S implicitly performed
<dSpData1D:S at geom step 9
  <sparsity:sparsity for geom step 9
    nrows_g=36 nrows=36 sparsity=.9784 nnzs=1268, refcount: 7>
  <dData1D:(new from dSpData1D) n=1268, refcount: 1>
refcount: 1>
new_DM -- step:     9
Re-using DM from previous geometries...
Number of DMs in history: 1
 DM extrapolation coefficients: 
1   1.00000
New DM after history re-use:
<dSpData2D:SpM extrapolated using coords
  <sparsity:sparsity for geom step 9
    nrows_g=36 nrows=36 sparsity=.9784 nnzs=1268, refcount: 9>
  <dData2D:(temp array for extrapolation) n=1268 m=1, refcount: 1>
refcount: 1>
Note: For starting DM, Qtot, Tr[D*S] =         14.00000000         14.03122191
No. of atoms with KB's overlaping orbs in proc 0. Max # of overlaps:       4      34
New grid distribution:   1
           1       1:   45    1:   45    1:   45

InitMesh: MESH =    90 x    90 x    90 =      729000
InitMesh: (bp) =    45 x    45 x    45 =       91125
InitMesh: Mesh cutoff (required, used) =   200.000   223.865 Ry
ExtMesh (bp) on 0 =   117 x   117 x   117 =     1601613
PhiOnMesh: Number of (b)points on node 0 =                91125
PhiOnMesh: nlist on node 0 =               451298

        iscf     Eharris(eV)        E_KS(eV)     FreeEng(eV)     dDmax    Ef(eV) dHmax(eV)
   scf:    1     -900.862057     -900.598226     -900.667538  0.265475 -7.002416  0.675035
   scf:    2     -900.543037     -900.584731     -900.653877  0.394480 -6.490563  0.895984
   scf:    3     -900.612901     -900.602711     -900.672006  0.196653 -6.741138  0.240345
   scf:    4     -900.602803     -900.604307     -900.673578  0.041839 -6.689959  0.064137
   scf:    5     -900.604401     -900.604354     -900.673629  0.000883 -6.690967  0.064649
   scf:    6     -900.603814     -900.604278     -900.673587  0.025212 -6.646502  0.163282
   scf:    7     -900.605016     -900.604861     -900.674176  0.050410 -6.696322  0.014040
   scf:    8     -900.604832     -900.604851     -900.674165  0.002626 -6.693637  0.014113
   scf:    9     -900.604864     -900.604863     -900.674178  0.004699 -6.690150  0.000483
   scf:   10     -900.604863     -900.604863     -900.674178  0.000076 -6.690181  0.000301

SCF Convergence by DM+H criterion
max |DM_out - DM_in|         :     0.0000759173
max |H_out - H_in|      (eV) :     0.0003009572
SCF cycle converged after 10 iterations

Using DM_out to compute the final energy and forces
No. of atoms with KB's overlaping orbs in proc 0. Max # of overlaps:       4      34

siesta: E_KS(eV) =             -900.6049

siesta: Atomic forces (eV/Ang):
----------------------------------------
   Tot   -0.007236   -0.000900    0.000043
----------------------------------------
   Max    1.378205
   Res    0.591951    sqrt( Sum f_i^2 / 3N )
----------------------------------------
   Max    1.378205    constrained

Stress tensor Voigt[x,y,z,yz,xz,xy] (kbar):      -14.35       -0.33        0.10        0.14        0.42       -0.09
(Free)E + p*V (eV/cell)     -897.6420
Target enthalpy (eV/cell)     -900.6742

siesta: Stress tensor (static) (eV/Ang**3):
        -0.001518   -0.000085    0.000171
        -0.000085    0.000028    0.000071
         0.000171    0.000071    0.000108

siesta: Pressure (static):          0.73857937  kBar

siesta: Stress tensor (total) (eV/Ang**3):
        -0.008954   -0.000055    0.000265
        -0.000055   -0.000204    0.000090
         0.000265    0.000090    0.000062

siesta: Pressure (total):          4.85810802  kBar

siesta: Temp_ion =   10158.175 K

                     ====================================
                        Begin MD step =     10
                     ====================================

outcell: Unit cell vectors (Ang):
       10.000000    0.000000    0.000000
        0.000000   10.000000    0.000000
        0.000000    0.000000   10.000000

outcell: Cell vector modules (Ang)   :   10.000000   10.000000   10.000000
outcell: Cell angles (23,13,12) (deg):     90.0000     90.0000     90.0000
outcell: Cell volume (Ang**3)        :   1000.0000
Gamma-point calculation with multiply-connected orbital pairs
Gamma-point calculation with multiply-connected orbital pairs
Folding of H and S implicitly performed
Folding of H and S implicitly performed
<dSpData1D:S at geom step 10
  <sparsity:sparsity for geom step 10
    nrows_g=36 nrows=36 sparsity=.9784 nnzs=1268, refcount: 7>
  <dData1D:(new from dSpData1D) n=1268, refcount: 1>
refcount: 1>
new_DM -- step:    10
Re-using DM from previous geometries...
Number of DMs in history: 1
 DM extrapolation coefficients: 
1   1.00000
New DM after history re-use:
<dSpData2D:SpM extrapolated using coords
  <sparsity:sparsity for geom step 10
    nrows_g=36 nrows=36 sparsity=.9784 nnzs=1268, refcount: 9>
  <dData2D:(temp array for extrapolation) n=1268 m=1, refcount: 1>
refcount: 1>
Note: For starting DM, Qtot, Tr[D*S] =         14.00000000         14.03167406
No. of atoms with KB's overlaping orbs in proc 0. Max # of overlaps:       4      34
New grid distribution:   1
           1       1:   45    1:   45    1:   45

InitMesh: MESH =    90 x    90 x    90 =      729000
InitMesh: (bp) =    45 x    45 x    45 =       91125
InitMesh: Mesh cutoff (required, used) =   200.000   223.865 Ry
ExtMesh (bp) on 0 =   117 x   117 x   117 =     1601613
PhiOnMesh: Number of (b)points on node 0 =                91125
PhiOnMesh: nlist on node 0 =               451279

        iscf     Eharris(eV)        E_KS(eV)     FreeEng(eV)     dDmax    Ef(eV) dHmax(eV)
   scf:    1     -900.877889     -900.587391     -900.656705  0.241712 -7.056525  0.717392
   scf:    2     -900.523385     -900.571683     -900.640976  0.405407 -6.518824  0.989531
   scf:    3     -900.604334     -900.592649     -900.661962  0.207673 -6.789266  0.272118
   scf:    4     -900.594705     -900.594853     -900.664161  0.048357 -6.729383  0.059260
   scf:    5     -900.592528     -900.593889     -900.663162  0.029235 -6.688872  0.186096
   scf:    6     -900.594615     -900.594529     -900.663844  0.016110 -6.692167  0.152446
   scf:    7     -900.595069     -900.595003     -900.664318  0.050307 -6.741666  0.028151
   scf:    8     -900.594996     -900.595003     -900.664318  0.008138 -6.733370  0.014582
   scf:    9     -900.595017     -900.595015     -900.664330  0.004555 -6.731017  0.000677
   scf:   10     -900.595015     -900.595015     -900.664330  0.000102 -6.731111  0.000256

SCF Convergence by DM+H criterion
max |DM_out - DM_in|         :     0.0001018692
max |H_out - H_in|      (eV) :     0.0002561424
SCF cycle converged after 10 iterations

Using DM_out to compute the final energy and forces
No. of atoms with KB's overlaping orbs in proc 0. Max # of overlaps:       4      34

siesta: E_KS(eV) =             -900.5950

siesta: Atomic forces (eV/Ang):
----------------------------------------
   Tot   -0.004756   -0.000723   -0.000090
----------------------------------------
   Max    0.917936
   Res    0.640097    sqrt( Sum f_i^2 / 3N )
----------------------------------------
   Max    0.917936    constrained

Stress tensor Voigt[x,y,z,yz,xz,xy] (kbar):      -14.83       -0.60       -0.53       -0.27       -0.44       -0.62
(Free)E + p*V (eV/cell)     -897.3431
Target enthalpy (eV/cell)     -900.6643

siesta: Stress tensor (static) (eV/Ang**3):
        -0.001686   -0.000380   -0.000356
        -0.000380   -0.000148   -0.000202
        -0.000356   -0.000202   -0.000309

siesta: Pressure (static):          1.14419099  kBar

siesta: Stress tensor (total) (eV/Ang**3):
        -0.009257   -0.000387   -0.000275
        -0.000387   -0.000374   -0.000168
        -0.000275   -0.000168   -0.000332

siesta: Pressure (total):          5.32119439  kBar

siesta: Temp_ion =   10142.482 K

                     ====================================
                        Begin MD step =     11
                     ====================================

outcell: Unit cell vectors (Ang):
       10.000000    0.000000    0.000000
        0.000000   10.000000    0.000000
        0.000000    0.000000   10.000000

outcell: Cell vector modules (Ang)   :   10.000000   10.000000   10.000000
outcell: Cell angles (23,13,12) (deg):     90.0000     90.0000     90.0000
outcell: Cell volume (Ang**3)        :   1000.0000
Gamma-point calculation with multiply-connected orbital pairs
Gamma-point calculation with multiply-connected orbital pairs
Folding of H and S implicitly performed
Folding of H and S implicitly performed
<dSpData1D:S at geom step 11
  <sparsity:sparsity for geom step 11
    nrows_g=36 nrows=36 sparsity=.9830 nnzs=1274, refcount: 7>
  <dData1D:(new from dSpData1D) n=1274, refcount: 1>
refcount: 1>
new_DM -- step:    11
Re-using DM from previous geometries...
Number of DMs in history: 1
 DM extrapolation coefficients: 
1   1.00000
New DM after history re-use:
<dSpData2D:SpM extrapolated using coords
  <sparsity:sparsity for geom step 11
    nrows_g=36 nrows=36 sparsity=.9830 nnzs=1274, refcount: 9>
  <dData2D:(temp array for extrapolation) n=1274 m=1, refcount: 1>
refcount: 1>
No. of atoms with KB's overlaping orbs in proc 0. Max # of overlaps:       4      34
New grid distribution:   1
           1       1:   45    1:   45    1:   45

InitMesh: MESH =    90 x    90 x    90 =      729000
InitMesh: (bp) =    45 x    45 x    45 =       91125
InitMesh: Mesh cutoff (required, used) =   200.000   223.865 Ry
ExtMesh (bp) on 0 =   117 x   117 x   117 =     1601613
PhiOnMesh: Number of (b)points on node 0 =                91125
PhiOnMesh: nlist on node 0 =               451233

        iscf     Eharris(eV)        E_KS(eV)     FreeEng(eV)     dDmax    Ef(eV) dHmax(eV)
   scf:    1     -900.752152     -900.561317     -900.630630  0.322928 -6.898987  0.290924
   scf:    2     -900.543236     -900.556481     -900.625734  0.109144 -6.695063  0.463681
   scf:    3     -900.565197     -900.562249     -900.631560  0.059769 -6.805273  0.132831
   scf:    4     -900.562332     -900.562701     -900.632001  0.015214 -6.778284  0.019496
   scf:    5     -900.562856     -900.562834     -900.632148  0.007802 -6.780577  0.018924
   scf:    6     -900.562738     -900.562803     -900.632116  0.002591 -6.772137  0.037140
   scf:    7     -900.562849     -900.562848     -900.632162  0.013420 -6.779701  0.004696
   scf:    8     -900.562849     -900.562848     -900.632163  0.001490 -6.778543  0.001766
   scf:    9     -900.562849     -900.562849     -900.632163  0.001096 -6.777941  0.000406
   scf:   10     -900.562849     -900.562849     -900.632163  0.000082 -6.777921  0.000323

SCF Convergence by DM+H criterion
max |DM_out - DM_in|         :     0.0000823516
max |H_out - H_in|      (eV) :     0.0003233837
SCF cycle converged after 10 iterations

Using DM_out to compute the final energy and forces
No. of atoms with KB's overlaping orbs in proc 0. Max # of overlaps:       4      34

siesta: E_KS(eV) =             -900.5628

siesta: Atomic forces (eV/Ang):
----------------------------------------
   Tot    0.041283    0.000162    0.000289
----------------------------------------
   Max    1.317930
   Res    0.836130    sqrt( Sum f_i^2 / 3N )
----------------------------------------
   Max    1.317930    constrained

Stress tensor Voigt[x,y,z,yz,xz,xy] (kbar):      -14.40       -0.79       -0.99       -0.57       -0.73       -0.72
(Free)E + p*V (eV/cell)     -897.2663
Target enthalpy (eV/cell)     -900.6322

siesta: Stress tensor (static) (eV/Ang**3):
        -0.001448   -0.000434   -0.000557
        -0.000434   -0.000258   -0.000383
        -0.000557   -0.000383   -0.000583

siesta: Pressure (static):          1.22216716  kBar

siesta: Stress tensor (total) (eV/Ang**3):
        -0.008990   -0.000452   -0.000458
        -0.000452   -0.000492   -0.000354
        -0.000458   -0.000354   -0.000616

siesta: Pressure (total):          5.39271754  kBar

siesta: Temp_ion =   10070.951 K

                     ====================================
                        Begin MD step =     12
                     ====================================

outcell: Unit cell vectors (Ang):
       10.000000    0.000000    0.000000
        0.000000   10.000000    0.000000
        0.000000    0.000000   10.000000

outcell: Cell vector modules (Ang)   :   10.000000   10.000000   10.000000
outcell: Cell angles (23,13,12) (deg):     90.0000     90.0000     90.0000
outcell: Cell volume (Ang**3)        :   1000.0000
Gamma-point calculation with multiply-connected orbital pairs
Gamma-point calculation with multiply-connected orbital pairs
Folding of H and S implicitly performed
Folding of H and S implicitly performed
<dSpData1D:S at geom step 12
  <sparsity:sparsity for geom step 12
    nrows_g=36 nrows=36 sparsity=.9877 nnzs=1280, refcount: 7>
  <dData1D:(new from dSpData1D) n=1280, refcount: 1>
refcount: 1>
new_DM -- step:    12
Re-using DM from previous geometries...
Number of DMs in history: 1
 DM extrapolation coefficients: 
1   1.00000
New DM after history re-use:
<dSpData2D:SpM extrapolated using coords
  <sparsity:sparsity for geom step 12
    nrows_g=36 nrows=36 sparsity=.9877 nnzs=1280, refcount: 9>
  <dData2D:(temp array for extrapolation) n=1280 m=1, refcount: 1>
refcount: 1>
Note: For starting DM, Qtot, Tr[D*S] =         14.00000000         13.97368561
No. of atoms with KB's overlaping orbs in proc 0. Max # of overlaps:       4      34
New grid distribution:   1
           1       1:   45    1:   45    1:   45

InitMesh: MESH =    90 x    90 x    90 =      729000
InitMesh: (bp) =    45 x    45 x    45 =       91125
InitMesh: Mesh cutoff (required, used) =   200.000   223.865 Ry
ExtMesh (bp) on 0 =   117 x   117 x   117 =     1601613
PhiOnMesh: Number of (b)points on node 0 =                91125
PhiOnMesh: nlist on node 0 =               451245

        iscf     Eharris(eV)        E_KS(eV)     FreeEng(eV)     dDmax    Ef(eV) dHmax(eV)
   scf:    1     -900.588487     -900.578503     -900.647788  0.370761 -6.652188  0.404027
   scf:    2     -900.449440     -900.539514     -900.606457  0.334297 -6.942337  0.778446
   scf:    3     -900.595098     -900.578604     -900.647779  0.200163 -6.767404  0.224890
   scf:    4     -900.571401     -900.579241     -900.648338  0.061586 -6.817459  0.050692
   scf:    5     -900.580085     -900.581300     -900.650611  0.038762 -6.812008  0.041197
   scf:    6     -900.581452     -900.581412     -900.650726  0.010148 -6.820926  0.033208
   scf:    7     -900.581451     -900.581435     -900.650749  0.010191 -6.825671  0.004155
   scf:    8     -900.581437     -900.581436     -900.650750  0.001421 -6.824404  0.001953
   scf:    9     -900.581435     -900.581436     -900.650750  0.000734 -6.824626  0.001264
   scf:   10     -900.581436     -900.581436     -900.650750  0.000281 -6.824637  0.001034
   scf:   11     -900.581437     -900.581437     -900.650751  0.001215 -6.824912  0.000206
   scf:   12     -900.581437     -900.581437     -900.650751  0.000014 -6.824917  0.000195

SCF Convergence by DM+H criterion
max |DM_out - DM_in|         :     0.0000143890
max |H_out - H_in|      (eV) :     0.0001950170
SCF cycle converged after 12 iterations

Using DM_out to compute the final energy and forces
No. of atoms with KB's overlaping orbs in proc 0. Max # of overlaps:       4      34

siesta: E_KS(eV) =             -900.5814

siesta: Atomic forces (eV/Ang):
----------------------------------------
   Tot    0.018345   -0.001050   -0.001259
----------------------------------------
   Max    0.562980
   Res    0.334713    sqrt( Sum f_i^2 / 3N )
----------------------------------------
   Max    0.562980    constrained

Stress tensor Voigt[x,y,z,yz,xz,xy] (kbar):      -12.81       -0.61       -0.60       -0.31       -0.14       -0.20
(Free)E + p*V (eV/cell)     -897.7349
Target enthalpy (eV/cell)     -900.6508

siesta: Stress tensor (static) (eV/Ang**3):
        -0.000601   -0.000115   -0.000217
        -0.000115   -0.000117   -0.000185
        -0.000217   -0.000185   -0.000275

siesta: Pressure (static):          0.53058731  kBar

siesta: Stress tensor (total) (eV/Ang**3):
        -0.007996   -0.000124   -0.000087
        -0.000124   -0.000380   -0.000196
        -0.000087   -0.000196   -0.000372

siesta: Pressure (total):          4.67172454  kBar

siesta: Temp_ion =   10077.008 K

                     ====================================
                        Begin MD step =     13
                     ====================================

outcell: Unit cell vectors (Ang):
       10.000000    0.000000    0.000000
        0.000000   10.000000    0.000000
        0.000000    0.000000   10.000000

outcell: Cell vector modules (Ang)   :   10.000000   10.000000   10.000000
outcell: Cell angles (23,13,12) (deg):     90.0000     90.0000     90.0000
outcell: Cell volume (Ang**3)        :   1000.0000
Gamma-point calculation with multiply-connected orbital pairs
Gamma-point calculation with multiply-connected orbital pairs
Folding of H and S implicitly performed
Folding of H and S implicitly performed
<dSpData1D:S at geom step 13
  <sparsity:sparsity for geom step 13
    nrows_g=36 nrows=36 sparsity=.9877 nnzs=1280, refcount: 7>
  <dData1D:(new from dSpData1D) n=1280, refcount: 1>
refcount: 1>
new_DM -- step:    13
Re-using DM from previous geometries...
Number of DMs in history: 1
 DM extrapolation coefficients: 
1   1.00000
New DM after history re-use:
<dSpData2D:SpM extrapolated using coords
  <sparsity:sparsity for geom step 13
    nrows_g=36 nrows=36 sparsity=.9877 nnzs=1280, refcount: 9>
  <dData2D:(temp array for extrapolation) n=1280 m=1, refcount: 1>
refcount: 1>
Note: For starting DM, Qtot, Tr[D*S] =         14.00000000         13.95584127
No. of atoms with KB's overlaping orbs in proc 0. Max # of overlaps:       4      34
New grid distribution:   1
           1       1:   45    1:   45    1:   45

InitMesh: MESH =    90 x    90 x    90 =      729000
InitMesh: (bp) =    45 x    45 x    45 =       91125
InitMesh: Mesh cutoff (required, used) =   200.000   223.865 Ry
ExtMesh (bp) on 0 =   117 x   117 x   117 =     1601613
PhiOnMesh: Number of (b)points on node 0 =                91125
PhiOnMesh: nlist on node 0 =               451165

        iscf     Eharris(eV)        E_KS(eV)     FreeEng(eV)     dDmax    Ef(eV) dHmax(eV)
   scf:    1     -900.386222     -900.515568     -900.584731  0.473500 -6.559936  0.789750
   scf:    2     -899.873148     -900.319738     -900.378121  0.556661 -7.086940  1.711461
   scf:    3     -900.590229     -900.516530     -900.585381  0.364241 -6.739600  0.454947
   scf:    4     -900.461851     -900.511096     -900.578867  0.160066 -6.870208  0.116168
   scf:    5     -900.506314     -900.508746     -900.576298  0.007041 -6.873872  0.129884
   scf:    6     -900.522166     -900.526357     -900.595668  0.114967 -6.861182  0.058164
   scf:    7     -900.491335     -900.515831     -900.584040  0.092007 -6.839471  0.089376
   scf:    8     -900.526748     -900.526615     -900.595923  0.080681 -6.865246  0.002606
   scf:    9     -900.526614     -900.526615     -900.595924  0.000687 -6.865951  0.002320
   scf:   10     -900.526611     -900.526614     -900.595924  0.001149 -6.866362  0.001758
   scf:   11     -900.526615     -900.526614     -900.595924  0.000352 -6.866368  0.001585
   scf:   12     -900.526616     -900.526615     -900.595925  0.001519 -6.866923  0.000570
   scf:   13     -900.526615     -900.526615     -900.595925  0.000068 -6.866919  0.000473

SCF Convergence by DM+H criterion
max |DM_out - DM_in|         :     0.0000683713
max |H_out - H_in|      (eV) :     0.0004725241
SCF cycle converged after 13 iterations

Using DM_out to compute the final energy and forces
No. of atoms with KB's overlaping orbs in proc 0. Max # of overlaps:       4      34

siesta: E_KS(eV) =             -900.5266

siesta: Atomic forces (eV/Ang):
----------------------------------------
   Tot   -0.012658   -0.000381   -0.000168
----------------------------------------
   Max    0.845120
   Res    0.466480    sqrt( Sum f_i^2 / 3N )
----------------------------------------
   Max    0.845120    constrained

Stress tensor Voigt[x,y,z,yz,xz,xy] (kbar):      -11.80       -0.21        0.30        0.26        0.58        0.44
(Free)E + p*V (eV/cell)     -898.1577
Target enthalpy (eV/cell)     -900.5959

siesta: Stress tensor (static) (eV/Ang**3):
        -0.000099    0.000290    0.000231
         0.000290    0.000170    0.000234
         0.000231    0.000234    0.000373

siesta: Pressure (static):         -0.23712884  kBar

siesta: Stress tensor (total) (eV/Ang**3):
        -0.007365    0.000277    0.000359
         0.000277   -0.000134    0.000162
         0.000359    0.000162    0.000184

siesta: Pressure (total):          3.90649897  kBar

siesta: Temp_ion =    9927.295 K

                     ====================================
                        Begin MD step =     14
                     ====================================

outcell: Unit cell vectors (Ang):
       10.000000    0.000000    0.000000
        0.000000   10.000000    0.000000
        0.000000    0.000000   10.000000

outcell: Cell vector modules (Ang)   :   10.000000   10.000000   10.000000
outcell: Cell angles (23,13,12) (deg):     90.0000     90.0000     90.0000
outcell: Cell volume (Ang**3)        :   1000.0000
Gamma-point calculation with multiply-connected orbital pairs
Gamma-point calculation with multiply-connected orbital pairs
Folding of H and S implicitly performed
Folding of H and S implicitly performed
<dSpData1D:S at geom step 14
  <sparsity:sparsity for geom step 14
    nrows_g=36 nrows=36 sparsity=.9938 nnzs=1288, refcount: 7>
  <dData1D:(new from dSpData1D) n=1288, refcount: 1>
refcount: 1>
new_DM -- step:    14
Re-using DM from previous geometries...
Number of DMs in history: 1
 DM extrapolation coefficients: 
1   1.00000
New DM after history re-use:
<dSpData2D:SpM extrapolated using coords
  <sparsity:sparsity for geom step 14
    nrows_g=36 nrows=36 sparsity=.9938 nnzs=1288, refcount: 9>
  <dData2D:(temp array for extrapolation) n=1288 m=1, refcount: 1>
refcount: 1>
Note: For starting DM, Qtot, Tr[D*S] =         14.00000000         13.96069185
No. of atoms with KB's overlaping orbs in proc 0. Max # of overlaps:       4      35
New grid distribution:   1
           1       1:   45    1:   45    1:   45

InitMesh: MESH =    90 x    90 x    90 =      729000
InitMesh: (bp) =    45 x    45 x    45 =       91125
InitMesh: Mesh cutoff (required, used) =   200.000   223.865 Ry
ExtMesh (bp) on 0 =   117 x   117 x   117 =     1601613
PhiOnMesh: Number of (b)points on node 0 =                91125
PhiOnMesh: nlist on node 0 =               451125

        iscf     Eharris(eV)        E_KS(eV)     FreeEng(eV)     dDmax    Ef(eV) dHmax(eV)
   scf:    1     -900.177351     -900.354101     -900.422724  0.878907 -6.661263  0.723726
   scf:    2     -898.877668     -899.901448     -899.936109  0.483379 -7.080890  1.983571
   scf:    3     -900.500531     -900.348397     -900.416597  0.344233 -6.775562  0.430628
   scf:    4     -900.368926     -900.366185     -900.435490  0.085680 -6.807605  0.268107
   scf:    5     -900.145974     -900.294665     -900.356472  0.192671 -6.912660  0.214945
   scf:    6     -900.369678     -900.336575     -900.402538  0.065201 -6.895757  0.124214
   scf:    7     -900.239283     -900.343083     -900.410683  0.230817 -6.916490  0.134056
   scf:    8     -900.289698     -900.353767     -900.421465  0.189220 -6.915795  0.115770
   scf:    9     -900.360896     -900.367076     -900.436388  0.097180 -6.897338  0.015472
   scf:   10     -900.367353     -900.367557     -900.436830  0.018372 -6.897880  0.005751
   scf:   11     -900.367577     -900.367572     -900.436857  0.002548 -6.898325  0.002619
   scf:   12     -900.367571     -900.367573     -900.436862  0.000888 -6.899038  0.001473
   scf:   13     -900.367568     -900.367571     -900.436863  0.000644 -6.898999  0.001431
   scf:   14     -900.367573     -900.367572     -900.436863  0.001932 -6.899434  0.000746
   scf:   15     -900.367570     -900.367571     -900.436863  0.000240 -6.899617  0.000361

SCF Convergence by DM+H criterion
max |DM_out - DM_in|         :     0.0002398276
max |H_out - H_in|      (eV) :     0.0003606465
SCF cycle converged after 15 iterations

Using DM_out to compute the final energy and forces
No. of atoms with KB's overlaping orbs in proc 0. Max # of overlaps:       4      35

siesta: E_KS(eV) =             -900.3676

siesta: Atomic forces (eV/Ang):
----------------------------------------
   Tot   -0.007450    0.000969    0.000899
----------------------------------------
   Max    1.497356
   Res    0.914498    sqrt( Sum f_i^2 / 3N )
----------------------------------------
   Max    1.497356    constrained

Stress tensor Voigt[x,y,z,yz,xz,xy] (kbar):      -12.10        0.14        1.12        0.79        0.89        0.85
(Free)E + p*V (eV/cell)     -898.1824
Target enthalpy (eV/cell)     -900.4369

siesta: Stress tensor (static) (eV/Ang**3):
        -0.000391    0.000542    0.000434
         0.000542    0.000391    0.000562
         0.000434    0.000562    0.000880

siesta: Pressure (static):         -0.46991781  kBar

siesta: Stress tensor (total) (eV/Ang**3):
        -0.007550    0.000532    0.000558
         0.000532    0.000090    0.000493
         0.000558    0.000493    0.000696

siesta: Pressure (total):          3.61214867  kBar

siesta: Temp_ion =    9531.990 K

                     ====================================
                        Begin MD step =     15
                     ====================================

outcell: Unit cell vectors (Ang):
       10.000000    0.000000    0.000000
        0.000000   10.000000    0.000000
        0.000000    0.000000   10.000000

outcell: Cell vector modules (Ang)   :   10.000000   10.000000   10.000000
outcell: Cell angles (23,13,12) (deg):     90.0000     90.0000     90.0000
outcell: Cell volume (Ang**3)        :   1000.0000
<dSpData1D:S at geom step 15
  <sparsity:sparsity for geom step 15
    nrows_g=36 nrows=36 sparsity=.9954 nnzs=1290, refcount: 7>
  <dData1D:(new from dSpData1D) n=1290, refcount: 1>
refcount: 1>
new_DM -- step:    15
Re-using DM from previous geometries...
Number of DMs in history: 1
 DM extrapolation coefficients: 
1   1.00000
New DM after history re-use:
<dSpData2D:SpM extrapolated using coords
[...]
   scf:   16     -899.231367     -899.231367     -899.231367  0.000030 -6.002946  0.001090
   scf:   17     -899.231367     -899.231367     -899.231367  0.000041 -6.002977  0.001013
   scf:   18     -899.231367     -899.231367     -899.231367  0.000019 -6.002989  0.000644

SCF Convergence by DM+H criterion
max |DM_out - DM_in|         :     0.0000189954
max |H_out - H_in|      (eV) :     0.0006440690
SCF cycle converged after 18 iterations

Using DM_out to compute the final energy and forces
No. of atoms with KB's overlaping orbs in proc 0. Max # of overlaps:       4      35

siesta: E_KS(eV) =             -899.2314

siesta: Atomic forces (eV/Ang):
----------------------------------------
   Tot    0.011835   -0.004622    0.005968
----------------------------------------
   Max    4.360884
   Res    2.332271    sqrt( Sum f_i^2 / 3N )
----------------------------------------
   Max    4.360884    constrained

Stress tensor Voigt[x,y,z,yz,xz,xy] (kbar):        4.89       10.43        4.67       -0.10       -0.35       -7.48
(Free)E + p*V (eV/cell)     -903.3894
Target enthalpy (eV/cell)     -899.2314

siesta: Stress tensor (static) (eV/Ang**3):
         0.005111   -0.004302    0.000897
        -0.004302    0.006866   -0.000430
         0.000897   -0.000430    0.006026

siesta: Pressure (static):         -9.61483732  kBar

siesta: Stress tensor (total) (eV/Ang**3):
         0.003051   -0.004669   -0.000216
        -0.004669    0.006512   -0.000061
        -0.000216   -0.000062    0.002912

siesta: Pressure (total):         -6.66197052  kBar

siesta: Temp_ion =    4973.143 K

                     ====================================
                        Begin MD step =    198
                     ====================================

outcell: Unit cell vectors (Ang):
       10.000000    0.000000    0.000000
        0.000000   10.000000    0.000000
        0.000000    0.000000   10.000000

outcell: Cell vector modules (Ang)   :   10.000000   10.000000   10.000000
outcell: Cell angles (23,13,12) (deg):     90.0000     90.0000     90.0000
outcell: Cell volume (Ang**3)        :   1000.0000
<dSpData1D:S at geom step 198
  <sparsity:sparsity for geom step 198
    nrows_g=36 nrows=36 sparsity=.9985 nnzs=1294, refcount: 7>
  <dData1D:(new from dSpData1D) n=1294, refcount: 1>
refcount: 1>
new_DM -- step:   198
Re-using DM from previous geometries...
Number of DMs in history: 1
 DM extrapolation coefficients: 
1   1.00000
New DM after history re-use:
<dSpData2D:SpM extrapolated using coords
  <sparsity:sparsity for geom step 198
    nrows_g=36 nrows=36 sparsity=.9985 nnzs=1294, refcount: 9>
  <dData2D:(temp array for extrapolation) n=1294 m=1, refcount: 1>
refcount: 1>
Note: For starting DM, Qtot, Tr[D*S] =         14.00000000         13.96233260
No. of atoms with KB's overlaping orbs in proc 0. Max # of overlaps:       4      35
New grid distribution:   1
           1       1:   45    1:   45    1:   45

InitMesh: MESH =    90 x    90 x    90 =      729000
InitMesh: (bp) =    45 x    45 x    45 =       91125
InitMesh: Mesh cutoff (required, used) =   200.000   223.865 Ry
ExtMesh (bp) on 0 =   117 x   117 x   117 =     1601613
PhiOnMesh: Number of (b)points on node 0 =                91125
PhiOnMesh: nlist on node 0 =               451438

        iscf     Eharris(eV)        E_KS(eV)     FreeEng(eV)     dDmax    Ef(eV) dHmax(eV)
   scf:    1     -898.115987     -898.386847     -898.386847  0.257416 -5.332591  2.266221
   scf:    2     -889.373956     -895.698222     -895.698222  0.524379 -6.342254  9.434977
   scf:    3     -899.302473     -898.583237     -898.583237  0.365734 -5.523114  0.583999
   scf:    4     -898.524548     -898.570231     -898.570231  0.066785 -5.440941  0.836806
   scf:    5     -898.590619     -898.597530     -898.597530  0.050504 -6.216023  0.297599
   scf:    6     -898.581250     -898.591073     -898.591073  0.017064 -6.206418  0.484096
   scf:    7     -898.598536     -898.598319     -898.598319  0.033313 -6.161784  0.295904
   scf:    8     -898.598224     -898.599489     -898.599489  0.015619 -6.165172  0.191187
   scf:    9     -898.601625     -898.601271     -898.601271  0.009105 -6.173674  0.025534
   scf:   10     -898.601246     -898.601269     -898.601269  0.002268 -6.175641  0.021949
   scf:   11     -898.601227     -898.601256     -898.601256  0.001657 -6.174769  0.034370
   scf:   12     -898.601316     -898.601300     -898.601300  0.002343 -6.175744  0.001027
   scf:   13     -898.601300     -898.601300     -898.601300  0.000021 -6.175778  0.000811

SCF Convergence by DM+H criterion
max |DM_out - DM_in|         :     0.0000214234
max |H_out - H_in|      (eV) :     0.0008105385
SCF cycle converged after 13 iterations

Using DM_out to compute the final energy and forces
No. of atoms with KB's overlaping orbs in proc 0. Max # of overlaps:       4      35

siesta: E_KS(eV) =             -898.6013

siesta: Atomic forces (eV/Ang):
----------------------------------------
   Tot   -0.002467    0.003693   -0.004289
----------------------------------------
   Max    4.288993
   Res    2.388059    sqrt( Sum f_i^2 / 3N )
----------------------------------------
   Max    4.288993    constrained

Stress tensor Voigt[x,y,z,yz,xz,xy] (kbar):        6.78        9.98        7.43       -0.31        0.24       -7.15
(Free)E + p*V (eV/cell)     -903.6343
Target enthalpy (eV/cell)     -898.6013

siesta: Stress tensor (static) (eV/Ang**3):
         0.005593   -0.003992    0.000900
        -0.003991    0.006817   -0.000430
         0.000900   -0.000431    0.006517

siesta: Pressure (static):        -10.10879887  kBar

siesta: Stress tensor (total) (eV/Ang**3):
         0.004231   -0.004463    0.000153
        -0.004463    0.006228   -0.000194
         0.000152   -0.000194    0.004640

siesta: Pressure (total):         -8.06386126  kBar

siesta: Temp_ion =    3359.191 K

                     ====================================
                        Begin MD step =    199
                     ====================================

outcell: Unit cell vectors (Ang):
       10.000000    0.000000    0.000000
        0.000000   10.000000    0.000000
        0.000000    0.000000   10.000000

outcell: Cell vector modules (Ang)   :   10.000000   10.000000   10.000000
outcell: Cell angles (23,13,12) (deg):     90.0000     90.0000     90.0000
outcell: Cell volume (Ang**3)        :   1000.0000
<dSpData1D:S at geom step 199
  <sparsity:sparsity for geom step 199
    nrows_g=36 nrows=36 sparsity=.9985 nnzs=1294, refcount: 7>
  <dData1D:(new from dSpData1D) n=1294, refcount: 1>
refcount: 1>
new_DM -- step:   199
Re-using DM from previous geometries...
Number of DMs in history: 1
 DM extrapolation coefficients: 
1   1.00000
New DM after history re-use:
<dSpData2D:SpM extrapolated using coords
  <sparsity:sparsity for geom step 199
    nrows_g=36 nrows=36 sparsity=.9985 nnzs=1294, refcount: 9>
  <dData2D:(temp array for extrapolation) n=1294 m=1, refcount: 1>
refcount: 1>
Note: For starting DM, Qtot, Tr[D*S] =         14.00000000         13.98389120
No. of atoms with KB's overlaping orbs in proc 0. Max # of overlaps:       4      35
New grid distribution:   1
           1       1:   45    1:   45    1:   45

InitMesh: MESH =    90 x    90 x    90 =      729000
InitMesh: (bp) =    45 x    45 x    45 =       91125
InitMesh: Mesh cutoff (required, used) =   200.000   223.865 Ry
ExtMesh (bp) on 0 =   117 x   117 x   117 =     1601613
PhiOnMesh: Number of (b)points on node 0 =                91125
PhiOnMesh: nlist on node 0 =               451580

        iscf     Eharris(eV)        E_KS(eV)     FreeEng(eV)     dDmax    Ef(eV) dHmax(eV)
   scf:    1     -898.195962     -898.252708     -898.252708  0.176180 -5.567171  1.274832
   scf:    2     -895.605054     -897.465872     -897.465872  0.224658 -5.909324  5.504009
   scf:    3     -898.508590     -898.313735     -898.313735  0.159066 -5.627352  0.412926
   scf:    4     -898.310834     -898.314463     -898.314463  0.014623 -5.606822  0.490619
   scf:    5     -898.317649     -898.320434     -898.320434  0.029539 -5.616018  0.185099
   scf:    6     -898.319525     -898.321245     -898.321245  0.015814 -5.593933  0.142144
   scf:    7     -898.321025     -898.321278     -898.321278  0.003321 -5.592401  0.113797
   scf:    8     -898.321896     -898.321874     -898.321874  0.007018 -5.598716  0.019681
   scf:    9     -898.321873     -898.321887     -898.321887  0.001657 -5.597352  0.013133
   scf:   10     -898.321894     -898.321892     -898.321892  0.000987 -5.598528  0.005568
   scf:   11     -898.321893     -898.321893     -898.321893  0.000242 -5.598890  0.000723

SCF Convergence by DM+H criterion
max |DM_out - DM_in|         :     0.0002419439
max |H_out - H_in|      (eV) :     0.0007229125
SCF cycle converged after 11 iterations

Using DM_out to compute the final energy and forces
No. of atoms with KB's overlaping orbs in proc 0. Max # of overlaps:       4      35

siesta: E_KS(eV) =             -898.3219

siesta: Atomic forces (eV/Ang):
----------------------------------------
   Tot   -0.005805   -0.005769    0.001078
----------------------------------------
   Max    4.095091
   Res    2.420287    sqrt( Sum f_i^2 / 3N )
----------------------------------------
   Max    4.095091    constrained

Stress tensor Voigt[x,y,z,yz,xz,xy] (kbar):        8.34        9.18        9.28       -0.53        0.54       -6.42
(Free)E + p*V (eV/cell)     -903.8975
Target enthalpy (eV/cell)     -898.3219

siesta: Stress tensor (static) (eV/Ang**3):
         0.006036   -0.003629    0.000743
        -0.003629    0.006628   -0.000449
         0.000743   -0.000450    0.006649

siesta: Pressure (static):        -10.31441443  kBar

siesta: Stress tensor (total) (eV/Ang**3):
         0.005203   -0.004004    0.000336
        -0.004004    0.005733   -0.000331
         0.000336   -0.000331    0.005791

siesta: Pressure (total):         -8.93312764  kBar

siesta: Temp_ion =    2637.690 K

                     ====================================
                        Begin MD step =    200
                     ====================================

outcell: Unit cell vectors (Ang):
       10.000000    0.000000    0.000000
        0.000000   10.000000    0.000000
        0.000000    0.000000   10.000000

outcell: Cell vector modules (Ang)   :   10.000000   10.000000   10.000000
outcell: Cell angles (23,13,12) (deg):     90.0000     90.0000     90.0000
outcell: Cell volume (Ang**3)        :   1000.0000
<dSpData1D:S at geom step 200
  <sparsity:sparsity for geom step 200
    nrows_g=36 nrows=36 sparsity=.9985 nnzs=1294, refcount: 7>
  <dData1D:(new from dSpData1D) n=1294, refcount: 1>
refcount: 1>
new_DM -- step:   200
Re-using DM from previous geometries...
Number of DMs in history: 1
 DM extrapolation coefficients: 
1   1.00000
New DM after history re-use:
<dSpData2D:SpM extrapolated using coords
  <sparsity:sparsity for geom step 200
    nrows_g=36 nrows=36 sparsity=.9985 nnzs=1294, refcount: 9>
  <dData2D:(temp array for extrapolation) n=1294 m=1, refcount: 1>
refcount: 1>
No. of atoms with KB's overlaping orbs in proc 0. Max # of overlaps:       4      35
New grid distribution:   1
           1       1:   45    1:   45    1:   45

InitMesh: MESH =    90 x    90 x    90 =      729000
InitMesh: (bp) =    45 x    45 x    45 =       91125
InitMesh: Mesh cutoff (required, used) =   200.000   223.865 Ry
ExtMesh (bp) on 0 =   117 x   117 x   117 =     1601613
PhiOnMesh: Number of (b)points on node 0 =                91125
PhiOnMesh: nlist on node 0 =               451283

        iscf     Eharris(eV)        E_KS(eV)     FreeEng(eV)     dDmax    Ef(eV) dHmax(eV)
   scf:    1     -898.291884     -898.339257     -898.339257  0.202277 -5.604659  1.065477
   scf:    2     -895.610401     -897.503860     -897.503860  0.405128 -5.308359  5.345317
   scf:    3     -898.505667     -898.380241     -898.380241  0.366570 -5.544646  0.424488
   scf:    4     -898.371605     -898.379136     -898.379136  0.027833 -5.515812  0.455907
   scf:    5     -898.380122     -898.381049     -898.381049  0.014424 -5.512750  0.382192
   scf:    6     -898.387430     -898.386029     -898.386029  0.020409 -5.537044  0.039509
   scf:    7     -898.385949     -898.386042     -898.386042  0.001982 -5.539436  0.043120
   scf:    8     -898.386161     -898.386108     -898.386108  0.003236 -5.538029  0.028056
   scf:    9     -898.386135     -898.386130     -898.386130  0.000928 -5.537235  0.005685
   scf:   10     -898.386131     -898.386131     -898.386131  0.000515 -5.536775  0.004261
   scf:   11     -898.386131     -898.386131     -898.386131  0.000245 -5.536568  0.000296

SCF Convergence by DM+H criterion
max |DM_out - DM_in|         :     0.0002448911
max |H_out - H_in|      (eV) :     0.0002962986
SCF cycle converged after 11 iterations

Using DM_out to compute the final energy and forces
No. of atoms with KB's overlaping orbs in proc 0. Max # of overlaps:       4      35

siesta: E_KS(eV) =             -898.3861

siesta: Atomic forces (eV/Ang):
----------------------------------------
   Tot   -0.018627    0.002861   -0.002830
----------------------------------------
   Max    3.990735
   Res    2.495871    sqrt( Sum f_i^2 / 3N )
----------------------------------------
   Max    3.990735    constrained

Stress tensor Voigt[x,y,z,yz,xz,xy] (kbar):        9.55        7.98       10.38       -0.79        0.61       -5.28
(Free)E + p*V (eV/cell)     -904.1907
Target enthalpy (eV/cell)     -898.3861

siesta: Stress tensor (static) (eV/Ang**3):
         0.006502   -0.003197    0.000546
        -0.003197    0.006219   -0.000491
         0.000546   -0.000491    0.006724

siesta: Pressure (static):        -10.38465257  kBar

siesta: Stress tensor (total) (eV/Ang**3):
         0.005959   -0.003298    0.000382
        -0.003298    0.004978   -0.000493
         0.000382   -0.000493    0.006477

siesta: Pressure (total):         -9.30004453  kBar

siesta: Temp_ion =    2806.057 K

coxmol: Writing XMOL coordinates into file xoc.xyz                                                             

siesta: Program's energy decomposition (eV):
siesta: Ebs     =      -181.519303
siesta: Eions   =      1592.294315
siesta: Ena     =       382.363842
siesta: Ekin    =       613.852876
siesta: Enl     =       -84.616518
siesta: Eso     =         0.000000
siesta: Edftu   =         0.000000
siesta: DEna    =       -19.683295
siesta: DUscf   =         2.812149
siesta: DUext   =         0.000000
siesta: Exc     =      -200.820870
siesta: eta*DQ  =         0.000000
siesta: Emadel  =         0.000000
siesta: Emeta   =         0.000000
siesta: Emolmec =         0.000000
siesta: Ekinion =         1.088091
siesta: Eharris =      -897.298041
siesta: Etot    =      -897.298041
siesta: FreeEng =      -897.298041

siesta: Final energy (eV):
siesta:  Band Struct. =    -181.519303
siesta:       Kinetic =     613.852876
siesta:       Hartree =     871.212018
siesta:       Edftu   =       0.000000
siesta:       Eso     =       0.000000
siesta:    Ext. field =       0.000000
siesta:   Exch.-corr. =    -200.820870
siesta:  Ion-electron =   -2281.994090
siesta:       Ion-ion =      99.363936
siesta:       Ekinion =       1.088091
siesta:         Total =    -897.298041
siesta:         Fermi =      -5.536568

siesta: Atomic forces (eV/Ang):
siesta:      1    2.857077    1.822152   -1.946880
siesta:      2   -1.018407   -2.874917   -3.567570
siesta:      3    1.807444   -0.461057    3.990735
siesta:      4   -3.664740    1.516684    1.520885
siesta: ----------------------------------------
siesta:    Tot   -0.018627    0.002861   -0.002830

siesta: Stress tensor (static) (eV/Ang**3):
siesta:     0.006502   -0.003197    0.000546
siesta:    -0.003197    0.006219   -0.000491
siesta:     0.000546   -0.000491    0.006724

siesta: Cell volume =       1000.000000 Ang**3

siesta: Pressure (static):
siesta:                Solid            Molecule  Units
siesta:          -0.00007059         -0.00000014  Ry/Bohr**3
siesta:          -0.00648152         -0.00001330  eV/Ang**3
siesta:         -10.38465257         -0.02131407  kBar
(Free)E+ p_basis*V_orbitals  =        -896.177540
(Free)Eharris+ p_basis*V_orbitals  =        -896.177540

siesta: Electric dipole (a.u.)  =    0.307403   -0.119760   -0.903527
siesta: Electric dipole (Debye) =    0.781342   -0.304401   -2.296537

cite: Please see "xoc.bib" for an exhaustive BiBTeX file.
cite: Please clearly indicate Siesta version in published work: 4.1.5
cite: This calculation has made use of the following articles
cite: which are encouraged to be cited in a published work.
        Primary SIESTA paper
          DOI: www.doi.org/10.1088/0953-8984/14/11/302


timer: Elapsed wall time (sec) =     760.197
timer: CPU execution times (sec):

Routine            Calls   Time/call    Tot.time        %
siesta                 1    3425.032    3425.032   100.00
Setup                  1       1.066       1.066     0.03
bands                  1       0.000       0.000     0.00
KSV_init               1       0.000       0.000     0.00
IterGeom             200      17.120    3423.965    99.97
state_init           200       0.001       0.255     0.01
hsparse              200       0.000       0.033     0.00
overlap              200       0.001       0.174     0.01
Setup_H0             200       0.301      60.193     1.76
naefs                400       0.000       0.007     0.00
MolMec               400       0.000       0.000     0.00
kinefsm              400       0.001       0.218     0.01
nlefsm               400       0.003       1.096     0.03
DHSCF_Init           200       0.296      59.116     1.73
DHSCF1               200       0.019       3.878     0.11
INITMESH             200       0.000       0.001     0.00
DHSCF2               200       0.276      55.238     1.61
REMESH               200       0.061      12.190     0.36
REORD               9264       0.004      35.739     1.04
PHION                200       0.162      32.440     0.95
COMM_BSC           13128       0.004      47.969     1.40
POISON              3332       0.314    1045.339    30.52
fft                 6664       0.122     813.217    23.74
IterSCF             2732       1.203    3286.524    95.96
setup_H             2932       1.118    3279.415    95.75
DHSCF               3132       1.071    3355.751    97.98
DHSCF3              3132       1.059    3315.305    96.80
rhoofd              3132       0.351    1099.883    32.11
XC                  3132       0.269     842.618    24.60
GXC-CellXC          3132       0.255     798.119    23.30
cellXC              3132       0.255     797.998    23.30
vmat                3132       0.016      51.262     1.50
compute_dm          2732       0.002       6.626     0.19
diagon              2732       0.002       6.511     0.19
r-eigvec            2732       0.002       4.891     0.14
r-buildHS           2732       0.000       0.009     0.00
rdiag               2732       0.002       4.807     0.14
rdiag1              2732       0.000       0.030     0.00
rdiag2              2732       0.000       0.053     0.00
rdiag3              2732       0.000       0.323     0.01
rdiag4              2732       0.002       4.211     0.12
r-buildD            2732       0.000       1.310     0.04
MIXER               2532       0.000       0.097     0.00
PostSCF              200       0.384      76.884     2.24
DHSCF4               200       0.202      40.424     1.18
dfscf                200       0.163      32.650     0.95
overfsm              200       0.000       0.051     0.00
state_analysis       200       0.000       0.033     0.00
siesta_move          200       0.000       0.055     0.00
Analysis               1       0.000       0.000     0.00
siesta_analysis        1       0.000       0.000     0.00
optical                1       0.000       0.000     0.00
  
>> End of run:  20-MAR-2024  13:48:24
Job completed
Job completed
